10
 energy: -15.265989998843 gnorm: 0.304750175144 xtb: 6.6.1 (unknown)
Br           1.41120478500000        0.98422212800000       -3.00341851200000
C            1.06452938300000        0.80950701100000       -1.40362507000000
H            1.94287638300000        1.35470922800000       -1.03787480700000
H            0.18618238300000        1.35470922800000       -1.03787480700000
C            1.06452938300000       -0.60810721500000       -0.80457813500000
H            0.99546469500000       -1.35887662600000       -1.55936476900000
H            0.40706418000000       -0.57302011700000        0.18869913000000
H            2.14139225100000       -0.74294982400000       -0.06706488000000
O            0.85958987000000       -1.77423322200000        1.90045144000000
H            0.80519801800000       -2.30787364300000        2.65801641300000
10
 energy: -15.330718485913 gnorm: 0.119688269467 xtb: 6.6.1 (unknown)
Br           1.38855349021186        0.95340796090674       -3.11915911438619
C            1.09419886908981        0.82381354291577       -1.36218246532058
H            1.94447047592896        1.38014522212814       -0.95021222721870
H            0.18669768966143        1.35108035655747       -1.03523883066434
C            1.10640590178340       -0.57907126956002       -0.74244928898683
H            0.99691100602122       -1.34708538623066       -1.49837533126445
H            0.38902077546106       -0.60960402285830        0.13215909901202
H            2.10277988170372       -0.76317968337497       -0.14252174517190
O            0.87421993677699       -1.76044194078447        1.88976578380142
H            0.79477330436155       -2.31097783169970        2.66158012319956
10
 energy: -15.345738762241 gnorm: 0.064008322885 xtb: 6.6.1 (unknown)
Br           1.34929457765000        0.90128085802493       -3.16719185163670
C            1.13564368994169        0.83490941153416       -1.30362632861972
H            1.95708028400121        1.43272543659088       -0.90618148965601
H            0.19476135515539        1.34624755762635       -1.04938355758401
C            1.15011670627233       -0.57032488517534       -0.70366670249941
H            0.98170531226714       -1.34653665520185       -1.45323271767377
H            0.40050301954579       -0.63880599638653        0.07766777454692
H            2.04501426067304       -0.73948394455142       -0.20763899404982
O            0.90206088123498       -1.75750655645443        1.88994111477990
H            0.76185124425845       -2.32441827800678        2.65667875539266
10
 energy: -15.348868295331 gnorm: 0.035267368699 xtb: 6.6.1 (unknown)
Br           1.32380128950015        0.86282607373874       -3.18457178040875
C            1.13968711283168        0.85036172465139       -1.27887431321246
H            1.94448263814311        1.47556396584718       -0.88748864730764
H            0.18282834274285        1.35095971661107       -1.07015075534085
C            1.16173353262344       -0.55327545104203       -0.68188836422490
H            0.97047754762467       -1.31447366727496       -1.44019163977164
H            0.37045810333749       -0.66450795562671        0.06380871677543
H            2.14776863637707       -0.79644634552951       -0.24246910357009
O            0.93091550470721       -1.74213573705026        1.90644209254053
H            0.70587862311235       -2.33078537632492        2.64874979752049
10
 energy: -15.350172656000 gnorm: 0.024210858636 xtb: 6.6.1 (unknown)
Br           1.30782082821171        0.85970806328898       -3.20284535369953
C            1.13638027698196        0.85557289373148       -1.27445969586247
H            1.93976828068561        1.48090322659995       -0.88471633607142
H            0.18379578990338        1.35264518692334       -1.07149259439442
C            1.16885583207927       -0.55220402541559       -0.69879140128772
H            0.96448701562608       -1.30932427747190       -1.45761316858957
H            0.44251057918268       -0.68783843154646        0.08783091929775
H            2.12809803919908       -0.79616571638006       -0.22150266322514
O            0.91592366928909       -1.73141522314254        1.91722939366055
H            0.69039101984115       -2.33379474858720        2.63972690317216
10
 energy: -15.351016695835 gnorm: 0.016681984100 xtb: 6.6.1 (unknown)
Br           1.30081032116592        0.85467627106378       -3.20287788145271
C            1.13180055953027        0.84462762256332       -1.25721265811681
H            1.93784934171034        1.46655734892235       -0.87326291251689
H            0.18536409725464        1.34226129240648       -1.05769469730908
C            1.17586174536631       -0.56421685981235       -0.69875881402322
H            0.96157401591138       -1.31091329395632       -1.46278225217268
H            0.46018117239998       -0.69830766674839        0.10906589557214
H            2.14782193267920       -0.76033290859877       -0.26114847073157
O            0.92028107511332       -1.70379702917664        1.92440672291372
H            0.65648706986863       -2.33246782866346        2.61363107083742
10
 energy: -15.352465306209 gnorm: 0.014161615152 xtb: 6.6.1 (unknown)
Br           1.29691721978394        0.86503858613483       -3.19672641522552
C            1.11517894576300        0.83400594577839       -1.22701334414404
H            1.91619375168428        1.46433270665916       -0.84786988799388
H            0.16127003684339        1.31729281678614       -1.04367594125498
C            1.20440467454291       -0.58051348755977       -0.69636386124051
H            0.95453342187912       -1.31249944697081       -1.46278702282066
H            0.52114823614735       -0.72024619974590        0.15553441737921
H            2.19852421287462       -0.79049748147041       -0.33478775064238
O            0.90053034059794       -1.63275455756051        1.92902798458928
H            0.60933049088333       -2.30607193405105        2.55802782435410
10
 energy: -15.353800407984 gnorm: 0.066890518006 xtb: 6.6.1 (unknown)
Br           1.31993048191615        0.89959984981197       -3.17467474669579
C            1.07552491985155        0.80543364909854       -1.15690675526862
H            1.85397009442725        1.46446164082613       -0.77448606020270
H            0.08990163859372        1.24191686629463       -1.02121798890150
C            1.26250179520793       -0.62357239097518       -0.69413254082642
H            0.90266885114530       -1.32800343605172       -1.45344185088300
H            0.68378343927967       -0.77569620868624        0.27704195654965
H            2.32319842245588       -0.86319154177442       -0.51849079679303
O            0.88689706359144       -1.42689527734481        1.95505368830481
H            0.47965462453075       -2.25596620319869        2.39462109771799
10
 energy: -15.356954680047 gnorm: 0.050183992514 xtb: 6.6.1 (unknown)
Br           1.36485036044473        0.92625000141092       -3.15258982629497
C            1.06599635021728        0.79200277598714       -1.12922750201413
H            1.82620184460075        1.46984257320742       -0.73175421024202
H            0.05534334384096        1.19782031976312       -1.01514552066176
C            1.27399910480081       -0.64277478995242       -0.69332695240721
H            0.85034622880010       -1.34515229259599       -1.43342327385156
H            0.74861138596589       -0.80146745825666        0.32758854204864
H            2.37027477871802       -0.89108767497613       -0.58645018248236
O            0.82336594783498       -1.40491353937027        1.89720679849890
H            0.49904198577601       -2.16243296721689        2.35048813040807
10
 energy: -15.364058163300 gnorm: 0.028384569122 xtb: 6.6.1 (unknown)
Br           1.37854181617663        0.93698301370305       -3.12666284022928
C            1.06643969174209        0.76895095839319       -1.10563278430094
H            1.82068054677978        1.44356183970647       -0.70206382005967
H            0.06309642859680        1.16417940730499       -0.97639622502369
C            1.27697806740374       -0.66363398594066       -0.69126222665735
H            0.84116325052110       -1.36927417071062       -1.40096256006093
H            0.75694520940462       -0.84166821095305        0.33800783211405
H            2.31642081334093       -0.91616439777500       -0.54937825468466
O            0.80530085265795       -1.26576223759208        1.84191694634139
H            0.55246465437576       -2.11908526813600        2.20579993556307
10
 energy: -15.367038396368 gnorm: 0.101498657395 xtb: 6.6.1 (unknown)
Br           1.41226002550386        0.92866738748409       -3.07830162219506
C            1.05338898933339        0.72250144029173       -1.04793565735067
H            1.78197417260283        1.41059954823998       -0.63155903816034
H            0.04691628162825        1.08900831735514       -0.93011143540464
C            1.29129661196978       -0.69744804833447       -0.66859604912663
H            0.79401649923866       -1.40012667171379       -1.32379567283933
H            0.86406717126959       -0.92379093287728        0.44803127155138
H            2.31519032298200       -0.93938769874528       -0.59287211269278
O            0.73110773245509       -1.00396132727143        1.74623038438798
H            0.58781352401573       -2.04797506642836        1.91227593483298
10
 energy: -15.376236042198 gnorm: 0.058611804420 xtb: 6.6.1 (unknown)
Br           1.41736359891009        0.90922336623145       -3.05308435392953
C            1.05151737132468        0.70853908177984       -1.04288814193278
H            1.76128216087779        1.40296996852613       -0.60910012346903
H            0.04396787555918        1.06345710185153       -0.92245135993701
C            1.27825276357391       -0.69184765517099       -0.65595544919325
H            0.77335527402180       -1.40491592434195       -1.27802910427561
H            0.91684490440239       -0.93475242667213        0.51039874763647
H            2.30736641423259       -0.92520780579533       -0.59355834445971
O            0.82721321695478       -1.04768655677947        1.61631481212874
H            0.50086775114196       -1.94169220162876        1.86171932043466
10
 energy: -15.378507664062 gnorm: 0.047845576745 xtb: 6.6.1 (unknown)
Br           1.44999292386707        0.98975858806483       -3.05173155515528
C            1.04458770601283        0.71862896757192       -1.04258616382291
H            1.72293045018228        1.42983236408925       -0.56230066477519
H           -0.00573205476420        1.01118493029849       -0.93317092278384
C            1.32267679245463       -0.69836378599502       -0.73793929440332
H            0.70444875128954       -1.42433506220796       -1.32197542804887
H            1.02192388056243       -0.93707569696018        0.52593102718386
H            2.36871835787797       -0.96776246092179       -0.70528976445746
O            0.82557695644416       -1.08713395391584        1.69961893257124
H            0.42290756707235       -1.89664694202322        1.96280983669463
10
 energy: -15.384248412605 gnorm: 0.052498306898 xtb: 6.6.1 (unknown)
Br           1.49018822157922        0.98914531860419       -3.02273491933889
C            1.03243304712282        0.69742839925368       -1.02400382422305
H            1.68425516207881        1.41242851414551       -0.51242561878531
H           -0.02658781518368        0.96904045442485       -0.93804045166896
C            1.31259928250561       -0.70165197923047       -0.74507104209579
H            0.66386505118251       -1.44238028949244       -1.25986893274265
H            1.12228186285691       -0.99181903836918        0.65687218939449
H            2.37969461615792       -0.96458538136632       -0.77092676747448
O            0.85381698343671       -0.99638224822892        1.63485118092825
H            0.36548491926215       -1.83313680174042        1.81471418900969
10
 energy: -15.383641791494 gnorm: 0.055070344187 xtb: 6.6.1 (unknown)
Br           1.47717005131012        1.01672475552371       -3.01249117831636
C            1.03321644263923        0.69214861082128       -1.04555186188161
H            1.69325150254800        1.36522519390894       -0.51424712682129
H            0.01110997772953        0.98901848153016       -0.92523164934813
C            1.27228875076450       -0.69883884223442       -0.78205742742419
H            0.72282923548762       -1.43582463302080       -1.27229734276934
H            1.10325815236780       -1.02945914219994        0.66070801238515
H            2.33604264728153       -0.94281309907448       -0.76613318867391
O            0.81443681842414       -0.98931325920536        1.65455046677278
H            0.41442775244646       -1.82878111804857        1.83611729908015
10
 energy: -15.386648711145 gnorm: 0.044783514833 xtb: 6.6.1 (unknown)
Br           1.48759713340833        1.07095381618283       -3.01483719023192
C            1.01970595566598        0.68209055834726       -1.03315356296648
H            1.66875759936117        1.36556792733535       -0.49435185131498
H           -0.02287394376269        0.95117938654651       -0.92453687552487
C            1.33239262723940       -0.71961425944692       -0.80160228354691
H            0.67541754198157       -1.47068657701500       -1.26110711644610
H            1.15624707008671       -0.98409742649067        0.67306565030140
H            2.35905913183602       -0.99011014707937       -0.76856966900020
O            0.81164429255022       -0.97337835263113        1.64485136393922
H            0.39008392263218       -1.79381797774830        1.81360753779421
10
 energy: -15.386430981456 gnorm: 0.051217434870 xtb: 6.6.1 (unknown)
Br           1.52118832491950        1.06085928849792       -3.03133274281777
C            1.02530559430015        0.68361725697344       -1.06304994719668
H            1.65096096262130        1.38352457437834       -0.50129562208295
H           -0.04300637660694        0.94331652384887       -1.00077228635308
C            1.31557144115958       -0.69051357919187       -0.80429266249203
H            0.64083705314897       -1.46389094950343       -1.21915337380281
H            1.18678752168400       -0.91305874934203        0.74026292187178
H            2.37949536964373       -0.95786812372619       -0.80014358783851
O            0.86200620712894       -1.04065282068324        1.68542451276666
H            0.33888523299982       -1.86724647325136        1.82771879094861
10
 energy: -15.388688975806 gnorm: 0.036293503669 xtb: 6.6.1 (unknown)
Br           1.54388626722835        1.12399848466416       -3.00869856446539
C            1.01888606048735        0.67193528184835       -1.03775534483501
H            1.64304544866052        1.36193857011472       -0.46310762202410
H           -0.04741281817753        0.92542058093977       -0.98039651786763
C            1.31254946016160       -0.72593745226660       -0.83391590628784
H            0.64956390876473       -1.47255060435475       -1.25078642972554
H            1.16693881016864       -0.97271151269423        0.74245379859147
H            2.35745710064038       -1.02318506458017       -0.81608360829169
O            0.87641698979192       -0.96525133876980        1.67965105425581
H            0.35670010327290       -1.78556999690087        1.80200514365327
10
 energy: -15.388716528884 gnorm: 0.042846460200 xtb: 6.6.1 (unknown)
Br           1.51304985403903        1.16126430725813       -3.01440405002673
C            1.01384870487279        0.66232186859456       -1.04468377247539
H            1.64156033930199        1.33894020183126       -0.48032433752412
H           -0.02079454355965        0.93082201340669       -0.96336778230085
C            1.32907444633197       -0.73484865365900       -0.85309762630651
H            0.67132827716906       -1.47217377783139       -1.26280160816108
H            1.16702006532756       -0.97932080083840        0.72647515987034
H            2.36337925547282       -1.01178039008761       -0.80842848405360
O            0.82574325794961       -0.97022186293706        1.70250586654807
H            0.37382167409366       -1.78691595773657        1.83149263743321
10
 energy: -15.390259667994 gnorm: 0.020993725042 xtb: 6.6.1 (unknown)
Br           1.54821252661147        1.17321416467778       -3.01491069961677
C            1.01983836719647        0.65724710267566       -1.05606491844378
H            1.63084003795204        1.34005266475172       -0.47056343928821
H           -0.03395093179278        0.91251376119963       -1.00337736997428
C            1.32036619134329       -0.72423421610364       -0.86342322790485
H            0.63876839806214       -1.47891518033536       -1.23575615081158
H            1.17615941506821       -0.95036986140757        0.76986538005301
H            2.35300607923374       -1.00737648580844       -0.80654840118686
O            0.84930228755723       -0.98637995963280        1.69977642047372
H            0.37548895976707       -1.79766504201641        1.81436840970290
10
 energy: -15.389234227191 gnorm: 0.053824404876 xtb: 6.6.1 (unknown)
Br           1.56643307045588        1.24400498546671       -3.01151829659539
C            1.01230710811715        0.64741188385786       -1.03955918980760
H            1.60917464441779        1.33652610585793       -0.44091149194407
H           -0.06474446324434        0.87506325229417       -1.02086361023796
C            1.33509846038153       -0.74295483662625       -0.90043680762302
H            0.62248963188062       -1.48160459488221       -1.25729768597464
H            1.20933601789039       -0.95447628457436        0.80567871521308
H            2.38252130601566       -1.05686767228674       -0.87804579551972
O            0.91090752172658       -0.96934825350143        1.74628555462304
H            0.29450803335752       -1.75966763760501        1.83003461086963
10
 energy: -15.391744930552 gnorm: 0.019239826423 xtb: 6.6.1 (unknown)
Br           1.54040176012218        1.26717195150163       -3.01817941653750
C            1.02189724634211        0.63970121776026       -1.04873663188447
H            1.62170940212864        1.32839856170938       -0.46250650694499
H           -0.04004274164084        0.87629655645337       -1.02681023805475
C            1.34444643253168       -0.74124098819189       -0.91648844111021
H            0.63788329136414       -1.48174978811566       -1.26109172915731
H            1.16933149982009       -0.95299140087552        0.82314168839424
H            2.38166208955604       -1.04598195829792       -0.87902772223319
O            0.90138344548676       -0.99595122953476        1.77226552964601
H            0.29935890528800       -1.75556597440820        1.85079947088552
10
 energy: -15.392438750203 gnorm: 0.013862275088 xtb: 6.6.1 (unknown)
Br           1.52101169701594        1.28128492478722       -3.04651286613133
C            1.02911511828063        0.63983352039588       -1.05580967456437
H            1.64200786806107        1.32244671913583       -0.47897161016624
H           -0.02561278479487        0.87887863526995       -1.00915471629935
C            1.35781321721259       -0.73439755351419       -0.94380943797981
H            0.65439817863830       -1.48030557846066       -1.27390924225364
H            1.12251046518007       -0.96068051372716        0.83709482233586
H            2.38967026006476       -1.03309602465957       -0.87657252979943
O            0.87851800460016       -1.01009909936391        1.78927116178725
H            0.30859930674015       -1.76577808186271        1.89174009607441
10
 energy: -15.392918144621 gnorm: 0.013011801427 xtb: 6.6.1 (unknown)
Br           1.48596901539474        1.30761848295300       -3.06979537993976
C            1.04117936133203        0.63691559126262       -1.05660618530956
H            1.67049374507157        1.32197145067379       -0.50015492908312
H           -0.00951472862325        0.88676371822262       -1.01377181805093
C            1.37063178840203       -0.73271104719466       -0.96140531249018
H            0.67104710228866       -1.47964765959005       -1.29378758086403
H            1.08218332923506       -0.97462323598139        0.85450841527385
H            2.40040481178791       -1.02892761123698       -0.87251083307613
O            0.85022368674441       -1.01187221750133        1.80461720370546
H            0.31541321936564       -1.78740052360696        1.94227242283773
10
 energy: -15.393227329580 gnorm: 0.036276574385 xtb: 6.6.1 (unknown)
Br           1.40883299017542        1.37108437257348       -3.15778843476263
C            1.07168498826814        0.63283620200523       -1.05673275723007
H            1.75302445215718        1.31965332048057       -0.56087406434120
H            0.02869688000274        0.90480122958938       -0.99303941883554
C            1.40809579612726       -0.71921108724044       -1.02599859343722
H            0.71662139039242       -1.47094239276208       -1.36069963108030
H            0.95475967343574       -1.01756961568894        0.90523778755604
H            2.43186225942157       -1.01371793525168       -0.86386678529674
O            0.74611369221302       -0.99841306518597        1.84453831687219
H            0.35833920880537       -1.87043408051890        2.10258958355878
10
 energy: -15.394178989150 gnorm: 0.014723122065 xtb: 6.6.1 (unknown)
Br           1.38648746747578        1.37758479897028       -3.19073095697704
C            1.07333467297824        0.63202364146111       -1.05228261144644
H            1.75811287956325        1.32564868306633       -0.57261217135708
H            0.02782241894098        0.89896035246836       -0.98529364665247
C            1.42003978011893       -0.71150812459290       -1.03547209415362
H            0.73270014409615       -1.46847609075145       -1.37175826344426
H            0.95630716124401       -1.02954906696151        0.93468425537915
H            2.44443623142453       -1.00364533702956       -0.86685628684158
O            0.78395400795029       -1.04652412948318        1.88191833420358
H            0.29483656720666       -1.83642777914680        2.09176944429305
10
 energy: -15.394840905742 gnorm: 0.013255881962 xtb: 6.6.1 (unknown)
Br           1.35113469176683        1.40101165728124       -3.24118863128887
C            1.08972164870906        0.63004271734266       -1.03972702532057
H            1.77451804499152        1.33309914085423       -0.58343664571552
H            0.04533838708019        0.90123691929617       -0.99727820830710
C            1.44174833888306       -0.70066886311006       -1.05654266372798
H            0.75523043314543       -1.45689834660962       -1.39852356407232
H            0.91186995873499       -1.06642710528508        0.96721872350228
H            2.46188105076700       -0.99668998659431       -0.89048955204444
O            0.76928624571211       -1.06240805972200        1.91922905972289
H            0.27730253120862       -1.84421112545255        2.15410451025489
10
 energy: -15.396649824705 gnorm: 0.015661236766 xtb: 6.6.1 (unknown)
Br           1.27493525888901        1.48442820349090       -3.39555841121355
C            1.12574689962445        0.61412071608798       -0.98160975272018
H            1.81722407932185        1.36402177249834       -0.62807386828150
H            0.08420924906630        0.90019482522153       -1.03117305101787
C            1.50641454045233       -0.66763586641056       -1.12694278992936
H            0.81556369808520       -1.42452176336616       -1.46816036160236
H            0.78176635538579       -1.18924150417205        1.06523640537218
H            2.51771843791502       -0.97814836302056       -0.97711944548186
O            0.73237594668129       -1.10578474043880        2.03037133581531
H            0.22207686557754       -1.85934633188993        2.34639594206242
10
 energy: -15.397268683734 gnorm: 0.016731667328 xtb: 6.6.1 (unknown)
Br           1.21428051191470        1.54082763107133       -3.51905323385136
C            1.15426103413742        0.60125116974887       -0.94804174293390
H            1.84574013900835        1.36842265920417       -0.64301110044301
H            0.11790875746227        0.89574028019374       -1.03222544296353
C            1.54530187552026       -0.65192356995183       -1.16538990175784
H            0.84509254405038       -1.40831863823362       -1.49103721448757
H            0.73156819473234       -1.22517577363961        1.15099724005014
H            2.55717280305431       -0.97283108410613       -1.03327615478228
O            0.68045178201213       -1.12562145242185        2.09710639120355
H            0.18625368910661       -1.88428427386438        2.41729716296899
10
 energy: -15.397684411150 gnorm: 0.013296631035 xtb: 6.6.1 (unknown)
Br           1.18681963328955        1.57776002124116       -3.58391089099943
C            1.16967259151383        0.59858182612961       -0.94603254824218
H            1.85302212600657        1.35589484915292       -0.62937279195930
H            0.13627893764563        0.88649037493328       -1.01434986176126
C            1.56350389154911       -0.65096434938527       -1.18754491169253
H            0.86828079515519       -1.40848710781597       -1.51643711514043
H            0.68383593015414       -1.24835540270325        1.16653346569021
H            2.58412736637585       -0.96479566584940       -1.05898007345745
O            0.67049166893151       -1.13417960164113        2.12249551509746
H            0.16199839037739       -1.87385799606123        2.48096521546807
10
 energy: -15.397923803155 gnorm: 0.007803627626 xtb: 6.6.1 (unknown)
Br           1.19168865016869        1.57941815250039       -3.60540811502581
C            1.16964041460182        0.59516298555683       -0.94881807385847
H            1.85720653623412        1.34935252986363       -0.61880787541535
H            0.13485717903898        0.87633175142958       -0.98149692767886
C            1.56210833675915       -0.66030993040050       -1.17080052074305
H            0.87241963701113       -1.41737362086491       -1.50623365503521
H            0.68647186061039       -1.21846901342632        1.17184867222406
H            2.59575596012659       -0.95839596175744       -1.09308076059464
O            0.65734174646195       -1.13316717101020        2.12547578571236
H            0.15054100998594       -1.87446277389034        2.46068747341813
10
 energy: -15.397999483694 gnorm: 0.006489545981 xtb: 6.6.1 (unknown)
Br           1.16655415150124        1.60262895584409       -3.66012225669601
C            1.18052028585176        0.58899789828955       -0.93267124573304
H            1.88173417802672        1.35501066579745       -0.63018488692734
H            0.14341893123260        0.87327497486630       -0.96993696645643
C            1.58319744500992       -0.65489482271650       -1.19039716590057
H            0.89467686746797       -1.41719897227300       -1.51853463233387
H            0.64189279885354       -1.23654150296083        1.19916385353544
H            2.61935555223727       -0.94451253633211       -1.12928624764635
O            0.63832211303054       -1.14825220509507        2.15720268256559
H            0.12835900778719       -1.88042550741917        2.50813286859573
10
 energy: -15.398063987029 gnorm: 0.002876865163 xtb: 6.6.1 (unknown)
Br           1.19001161228301        1.59733711939685       -3.64916210053514
C            1.17567032802763        0.58708916020083       -0.93006761428991
H            1.86498701502777        1.34956977935558       -0.61241117190814
H            0.13546260882183        0.86866729165366       -0.97114810061131
C            1.57627303063219       -0.65719622319798       -1.18760179447341
H            0.88142743267676       -1.42237128612443       -1.49854820290612
H            0.65989969984034       -1.22772749867834        1.18592251391218
H            2.61380666600041       -0.94606949991401       -1.13457842799569
O            0.64703295087719       -1.13915781147757        2.14230045485075
H            0.13345998681163       -1.87205408321387        2.48866044695994
10
 energy: -15.398094430558 gnorm: 0.002133657385 xtb: 6.6.1 (unknown)
Br           1.19806592022358        1.59126104665763       -3.64222313342602
C            1.17285560758982        0.58661295578946       -0.93297007590086
H            1.86435867703905        1.34670171714547       -0.61291087074663
H            0.13208531780155        0.86597989530801       -0.95808691006776
C            1.57205753817073       -0.65763446001748       -1.18726864475483
H            0.88012900121306       -1.42561775503350       -1.49650628823424
H            0.66454723613031       -1.22081156317390        1.17745505168488
H            2.60854196169332       -0.94245494140836       -1.12697094772506
O            0.64891281524820       -1.13595168766615        2.13329190791824
H            0.13647725588911       -1.86999825960047        2.47955591425544
10
 energy: -15.398137487179 gnorm: 0.002326105240 xtb: 6.6.1 (unknown)
Br           1.21720515125895        1.58236149784623       -3.63679720361835
C            1.16606618753738        0.58258950656634       -0.92416596215096
H            1.85710223143932        1.34516071271226       -0.60663947033371
H            0.12421563121508        0.85842713875712       -0.94013041160913
C            1.56854628578160       -0.65993842263310       -1.18647369347319
H            0.87856833466032       -1.43005428669513       -1.49310787015199
H            0.67081746215932       -1.21279873257529        1.16788710848322
H            2.60713571992754       -0.93931178640185       -1.13902542409296
O            0.65298560987461       -1.12832968931676        2.12380138744969
H            0.13538871714462       -1.86001899025910        2.46801754250056
10
 energy: -15.398212697788 gnorm: 0.002560891523 xtb: 6.6.1 (unknown)
Br           1.28244122337750        1.55732021993624       -3.62761587208299