10
 energy: -15.767996609650 gnorm: 0.168330591794 xtb: 6.6.1 (unknown)
Cl           1.41120478500000        0.98422212800000       -3.00341851200000
C            1.06452938300000        0.80950701100000       -1.40362507000000
H            1.94287638300000        1.35470922800000       -1.03787480700000
H            0.18618238300000        1.35470922800000       -1.03787480700000
C            1.06452938300000       -0.60810721500000       -0.80457813500000
H            0.99546469500000       -1.35887662600000       -1.55936476900000
H            0.40706418000000       -0.57302011700000        0.18869913000000
H            2.14139225100000       -0.74294982400000       -0.06706488000000
O            0.85958987000000       -1.77423322200000        1.90045144000000
H            0.80519801800000       -2.30787364300000        2.65801641300000
10
 energy: -15.805556092416 gnorm: 0.082204470521 xtb: 6.6.1 (unknown)
Cl           1.36856562697323        0.92884543098795       -3.03789315281579
C            1.10402803937329        0.82835131078973       -1.36291864779749
H            1.95274454979876        1.39571263626162       -0.96590976146321
H            0.18591978418859        1.34946423637543       -1.05881918318581
C            1.11221927730622       -0.57160624843885       -0.74421698244578
H            1.00067128443317       -1.34203716068939       -1.49066104559804
H            0.37720751859719       -0.61413480983853        0.11503354808143
H            2.10518571766561       -0.77473033973740       -0.16438124160038
O            0.88467147951406       -1.75449694030760        1.88659648436773
H            0.78681805314986       -2.30728116740299        2.65653598545735
10
 energy: -15.809454354331 gnorm: 0.098518102874 xtb: 6.6.1 (unknown)
Cl           1.32184942720836        0.86057930479222       -3.06348141708528
C            1.14854539446420        0.83633737944489       -1.31100446526843
H            1.96520646055832        1.44190803250454       -0.91363759933939
H            0.19955186011482        1.34355047891018       -1.07766348055971
C            1.16164859805059       -0.56248676616004       -0.71252704176988
H            0.97081859110421       -1.34257404561289       -1.45566271117293
H            0.42312745443394       -0.64213233204065        0.05713303422719
H            2.02137016851766       -0.71975767728700       -0.22194768593567
O            0.92040397263883       -1.75395680925227        1.88323567400390
H            0.74550940390908       -2.32338061729899        2.64892169590014
10
 energy: -15.815526641800 gnorm: 0.025943710120 xtb: 6.6.1 (unknown)
Cl           1.31771436025384        0.83788178467132       -3.05806178421249
C            1.13993546530905        0.84371615068129       -1.30371643814589
H            1.95274149216732        1.45965237241977       -0.90966616137765
H            0.18983872792025        1.35151561325434       -1.08794597648043
C            1.15146951718182       -0.55460115981579       -0.70501572083201
H            0.96576088058471       -1.31942132786491       -1.45778596945940
H            0.37841716891739       -0.65287873886168        0.06003318483470
H            2.12796972054988       -0.76504267566901       -0.23105747104038
O            0.93667535459683       -1.74442584018606        1.88756346272569
H            0.71750864351892       -2.31830923062931        2.63901887698778
10
 energy: -15.816092384925 gnorm: 0.017500264078 xtb: 6.6.1 (unknown)
Cl           1.30748112402217        0.83582751966676       -3.06093891691167
C            1.13189241495461        0.84949024662339       -1.29927114384917
H            1.94224127425012        1.46743036451809       -0.90777934858585
H            0.18380372578365        1.35511538736233       -1.09020517124389
C            1.16395615352051       -0.55132680192405       -0.71209107321536
H            0.97236704110489       -1.30690060693036       -1.47078215927627
H            0.42817521672333       -0.67583678819846        0.08013711336202
H            2.11199086706626       -0.80550758054709       -0.21987135193453
O            0.93083181136889       -1.72249324912558        1.88997119976956
H            0.70529170220560       -2.30771154344512        2.62419685488509
10
 energy: -15.816953922774 gnorm: 0.021713368682 xtb: 6.6.1 (unknown)
Cl           1.30003029559788        0.82099284138401       -3.05079130929967
C            1.12702432292855        0.84089328425522       -1.27796812387724
H            1.93358976268963        1.46297988782181       -0.89008636705604
H            0.18006143407786        1.34355985041778       -1.08028128962410
C            1.17395774052579       -0.56182323975149       -0.70685234035577
H            0.96361254089025       -1.30261269459502       -1.47599958364371
H            0.45869449273683       -0.69856605209090        0.10429613183961
H            2.13202576193366       -0.79023663346980       -0.26031251506265
O            0.95452729243878       -1.68350906503470        1.88576467396712
H            0.65450768718085       -2.29359123093709        2.58559672611234
10
 energy: -15.818020224615 gnorm: 0.030664771395 xtb: 6.6.1 (unknown)
Cl           1.30062948089074        0.79507801434283       -3.01375476375549
C            1.11455842203184        0.81898946135545       -1.21990055009487
H            1.90687444820730        1.45632697382269       -0.83281000231246
H            0.15834892715711        1.30280822441874       -1.05499334320625
C            1.20307102365397       -0.59300615909687       -0.69175977218692
H            0.92806877068203       -1.30104707952765       -1.47970630210052
H            0.53955488423709       -0.75240687200661        0.17277589705328
H            2.20663330144164       -0.77557779431415       -0.37507587631067
O            0.90878588190272       -1.59864432741971        1.83756511018404
H            0.61150619079572       -2.21443349357507        2.49102560572977
10
 energy: -15.822428158934 gnorm: 0.041280095392 xtb: 6.6.1 (unknown)
Cl           1.31339424744005        0.78135314879269       -2.97191667037908
C            1.09247241796571        0.79851609952526       -1.16022815123056
H            1.86428385602584        1.45695478825065       -0.76681252296644
H            0.11535261202621        1.24876104045463       -1.03441514906312
C            1.23865414113814       -0.62816404073633       -0.68384225578576
H            0.87675867845419       -1.30702125862680       -1.47963955787555
H            0.64871157814536       -0.81102588779959        0.25591360153619
H            2.29759685062915       -0.79521776537609       -0.51007271174644
O            0.93246909807386       -1.44294873717095        1.83419668554413
H            0.49833785110176       -2.16312043931414        2.35018273496641
10
 energy: -15.825166935894 gnorm: 0.084586304025 xtb: 6.6.1 (unknown)
Cl           1.34920503547310        0.80495254444729       -2.92602418054340
C            1.06824821726820        0.78082702020830       -1.11406292922463
H            1.81896651395367        1.45155752861027       -0.69716432323743
H            0.06763116298489        1.18600963366455       -1.00421642439738
C            1.26013902511069       -0.66365846939191       -0.69462442753165
H            0.82716811552915       -1.33769086888923       -1.45969228608880
H            0.76819209939938       -0.87612006260168        0.33745406443109
H            2.34467519858082       -0.85395780295059       -0.61021729762396
O            0.95534249208492       -1.26961567043915        1.80761987170549
H            0.41846347061552       -2.08421690465887        2.19429393551035
10
 energy: -15.827837844133 gnorm: 0.066552846852 xtb: 6.6.1 (unknown)
Cl           1.40358940464249        0.91128427657796       -2.92120148135807
C            1.05006880361078        0.79822724396274       -1.16101145745302
H            1.79631094409046        1.45348632474107       -0.69924212517073
H            0.02928345211620        1.15460712662340       -0.98042347058674
C            1.24112211991217       -0.65143803969425       -0.75055568987413
H            0.81596805392763       -1.40142885724294       -1.38799419445678
H            0.85029565959544       -0.87864452083860        0.35597422600056
H            2.28121650546569       -0.97701751782780       -0.54473562284327
O            0.98964326947831       -1.28397193600655        1.73001987476480
H            0.42053311816120       -1.98701715229601        2.19253594397732
10
 energy: -15.835705638562 gnorm: 0.048500799367 xtb: 6.6.1 (unknown)
Cl           1.40403076408569        0.86918860183084       -2.88455105647694
C            1.04312455067073        0.76338821159419       -1.10902075689968
H            1.76080763884390        1.44140282527996       -0.63417144463312
H            0.01412608235817        1.10819941588697       -0.96418311211477
C            1.28021749800397       -0.67874370381542       -0.71575944391251
H            0.74852412468257       -1.38809984966343       -1.37952090609139
H            0.93903061657282       -0.92556104854796        0.43028201318556
H            2.37584547263076       -0.93946676926922       -0.63475759080376
O            0.89663424541335       -1.20386477375182        1.63896996576016
H            0.41569033773850       -1.90835596154522        2.08607833498637
10
 energy: -15.842128979810 gnorm: 0.051921737934 xtb: 6.6.1 (unknown)
Cl           1.42060843410706        0.87378563188274       -2.84864813553100
C            1.05496246065949        0.72088334515864       -1.06765876656340
H            1.75204255434202        1.39206199734763       -0.56613569475396
H            0.03886328017406        1.06700567328399       -0.93516452502224
C            1.28353090248844       -0.71567217456073       -0.72131154143520
H            0.72231279342094       -1.38633552739840       -1.39387570173948
H            0.92050295422756       -1.00625546186691        0.44865380667993
H            2.34500102196154       -0.91464549852897       -0.64996934103652
O            0.85434733782674       -1.00941439570006        1.63586827786376
H            0.48585959179262       -1.88332664161941        1.93160762453785
10
 energy: -15.845803365731 gnorm: 0.052228662808 xtb: 6.6.1 (unknown)
Cl           1.43834488056935        0.90466727870939       -2.81815098388563
C            1.03738154593263        0.70697051866245       -1.04359714535130
H            1.71114014727203        1.38321701260705       -0.51374208278586
H           -0.00157500604691        1.00715118166396       -0.91465250174477
C            1.29557115482414       -0.72724878161314       -0.74643196868752
H            0.70926226967337       -1.41362433664109       -1.35124647890927
H            1.04459527483233       -1.02377052903441        0.55466338572461
H            2.37494711814435       -0.96344378110068       -0.75003918761180
O            0.85889483763447       -0.96069675657289        1.56574275556661
H            0.40946910816481       -1.77513485868223        1.85082021068480
10
 energy: -15.840046969241 gnorm: 0.137880636395 xtb: 6.6.1 (unknown)
Cl           1.44042927719033        0.99272734353506       -2.83060506518988
C            1.04456919749778        0.70817547016683       -1.07432021658023
H            1.68043018205672        1.37694561942971       -0.48870491617655
H           -0.02419628030222        0.94888915215174       -0.93033168754698
C            1.31676378900583       -0.70237680391592       -0.85950931062437
H            0.74185588370847       -1.43302936682235       -1.33887905016953
H            1.13183574509480       -0.93415328756159        0.60076546179924
H            2.36583297923635       -1.00488205359451       -0.87146978021391
O            0.77090210136822       -1.02125882089436        1.68063799565368
H            0.40960845614429       -1.79295030449616        1.94578257204854
10
 energy: -15.850165293866 gnorm: 0.044109103866 xtb: 6.6.1 (unknown)
Cl           1.45104578385209        0.99609406631514       -2.83035177220771
C            1.03795223182681        0.69347109640783       -1.07169380343315
H            1.66577970358823        1.37626777395782       -0.48967926451754
H           -0.02622954676219        0.93554811656339       -0.93850190798160
C            1.34622094581740       -0.71631266556917       -0.82841997443016
H            0.69164695726312       -1.45848928752655       -1.30702586323506
H            1.14958080544495       -0.93283985604450        0.63264980651658
H            2.38189298040538       -0.99718932089584       -0.83778910097327
O            0.77139891892011       -0.93281856791741        1.66241234166747
H            0.40874255064469       -1.82564440729239        1.84176554159415
10
 energy: -15.846156846916 gnorm: 0.097829370258 xtb: 6.6.1 (unknown)
Cl           1.46658153266362        0.99063734231699       -2.82867378856069
C            1.03835195238597        0.67666189978984       -1.07160646069598
H            1.67039565246922        1.34585326283423       -0.49591150164554
H            0.00825377968723        0.95978498520360       -0.96129606707533
C            1.32423319032523       -0.72563685548848       -0.79130707072412
H            0.69763130584438       -1.45588718375306       -1.28800678512533
H            1.04925677485756       -0.93065094996407        0.65631901882820
H            2.33917097748178       -0.96131366546175       -0.77396062903178
O            0.88803580061930       -0.98122402679620        1.57854355796461
H            0.39612036466627       -1.78013786068266        1.80926572906572
10
 energy: -15.852317292209 gnorm: 0.017754856715 xtb: 6.6.1 (unknown)
Cl           1.47747825735436        1.00694981926317       -2.82390186826147
C            1.04082054194984        0.68757335104039       -1.06910922020547
H            1.67107875325124        1.35653350614568       -0.48492750007270
H           -0.00276633140025        0.96177701410735       -0.96566935747907
C            1.31819708466439       -0.72682267470938       -0.80849715500112
H            0.70066723667550       -1.45297868761728       -1.30579055654858
H            1.02939871972285       -0.93254353336370        0.60691665017412
H            2.36313710621192       -0.98933878789866       -0.81594237869385
O            0.86212655407271       -0.97437405205671        1.64222327708483
H            0.41789340849798       -1.79868900691248        1.85806411200314
10
 energy: -15.853128849304 gnorm: 0.030822524240 xtb: 6.6.1 (unknown)
Cl           1.50108527301092        1.06339928228705       -2.81287574888078
C            1.03623327006768        0.67958205964949       -1.06727505283596
H            1.63398892381185        1.36044432842158       -0.44762678921220
H           -0.04164001604563        0.89610280030066       -0.97051146669481
C            1.35056438623532       -0.73136657854473       -0.85869989922679
H            0.65411109179210       -1.47800003055705       -1.28076751517055
H            1.14639818092984       -0.92798770224436        0.68161102120032
H            2.39476481467258       -1.02542734361265       -0.89491708456763
O            0.81566261788906       -0.92949703864792        1.66132155104188
H            0.38686278863687       -1.76916282905381        1.82310698734636
10
 energy: -15.854290289802 gnorm: 0.016608137752 xtb: 6.6.1 (unknown)
Cl           1.49157006235596        1.07196937030636       -2.81972979292666
C            1.03272570387153        0.67148945888466       -1.07765398032723
H            1.63286392843949        1.33859790704568       -0.46444762103626
H           -0.02655591358696        0.90351568872935       -0.98063005510960
C            1.34604681501160       -0.72850821622472       -0.86360196572161
H            0.68157140324342       -1.47703034003192       -1.26386865893471
H            1.13795966548170       -0.90771605727707        0.71606961542839
H            2.38689332553942       -1.00690932217242       -0.89319721517768
O            0.79868341200482       -0.92988899018192        1.67424265674966
H            0.39627292863963       -1.79743255107971        1.80618302005543
10
 energy: -15.854728309662 gnorm: 0.018447307830 xtb: 6.6.1 (unknown)
Cl           1.50015323485631        1.09939372057325       -2.81944686832164
C            1.03282083821067        0.66695025829814       -1.08150376751282
H            1.62607554986592        1.33627075263352       -0.46628345825661
H           -0.02141173919507        0.90117368565346       -0.99926650491288
C            1.35278489213903       -0.73788901916049       -0.87533004788818
H            0.67338724432127       -1.48302686547339       -1.26016667285729
H            1.11640677771770       -0.89557254730726        0.73139187754374
H            2.38111546830229       -1.01226638690187       -0.88438005669160
O            0.83191436876392       -0.95121429388190        1.67623705320334
H            0.38478469601855       -1.78573235643516        1.81211444869371
10
 energy: -15.855108898729 gnorm: 0.012700588947 xtb: 6.6.1 (unknown)
Cl           1.50979446872130        1.12319669162856       -2.81762738136240
C            1.03288667264171        0.66343910724821       -1.08354305146519
H            1.61737072136804        1.33565543881706       -0.45967955322521
H           -0.02739484084615        0.88632370479178       -1.01312681560801
C            1.35391955858291       -0.74079935816489       -0.89074030562709
H            0.66606995590430       -1.48390043210260       -1.25478023233789
H            1.12956089776360       -0.89622529697861        0.76044219666277
H            2.39280313140144       -1.01952502304681       -0.91267342401350
O            0.82756903969144       -0.94607903309939        1.69465591663114
H            0.37545172577199       -1.78399885109502        1.81043865334515
10
 energy: -15.855600709519 gnorm: 0.004480409846 xtb: 6.6.1 (unknown)
Cl           1.49871970237913        1.13458352402596       -2.83027854473108
C            1.03712682838658        0.66744699878433       -1.09414357275367
H            1.62548708043892        1.33633963146016       -0.47006279336322
H           -0.02420100859502        0.88759947770629       -1.01692766456635
C            1.36176937491716       -0.73616152704409       -0.91193344305669
H            0.66666357510702       -1.48095589696031       -1.26345776152610
H            1.10649011318495       -0.89399134973149        0.77064243812568
H            2.40195690605752       -1.02019899197123       -0.90135242011505
O            0.83591928810762       -0.96310134610112        1.72177293794409
H            0.36809947101670       -1.79347357217022        1.82910682704215
10
 energy: -15.855826969246 gnorm: 0.008557310433 xtb: 6.6.1 (unknown)
Cl           1.48206298046891        1.14784318016454       -2.84781573166623
C            1.04360278367487        0.67204405390567       -1.10639397737999
H            1.63904829114729        1.34030876614342       -0.48833408736397
H           -0.01798084984410        0.89091955140248       -1.02048748536777
C            1.37026484509013       -0.72959662736012       -0.93145402405357
H            0.67333730094435       -1.47446857621361       -1.27938500578125
H            1.07468685765256       -0.90448507145055        0.78546719715759
H            2.40934405855597       -1.01733548011801       -0.88731192411733
O            0.84154425531743       -0.98188920280097        1.74975161643226
H            0.36212080799318       -1.80525364567457        1.85932942514004
10
 energy: -15.855966134313 gnorm: 0.007852458818 xtb: 6.6.1 (unknown)
Cl           1.46399279522497        1.15579452955822       -2.86340855552301
C            1.04997008960277        0.67564241642419       -1.11386049980763
H            1.65401429004929        1.34437296523375       -0.50480035256942
H           -0.01085821915996        0.89532676372610       -1.01789037096380
C            1.37784924632379       -0.72428483200512       -0.94472139749861
H            0.68183637552674       -1.46875217197413       -1.29417804731273
H            1.05425766263558       -0.91994846225280        0.80108926041390
H            2.41459171260456       -1.01339901179509       -0.87917871133207
O            0.82901604521751       -0.98896134397343        1.76385211296722
H            0.36336133297535       -1.81770390494340        1.88646256462590
10
 energy: -15.856117125592 gnorm: 0.001948245690 xtb: 6.6.1 (unknown)
Cl           1.42899072455520        1.16505719730114       -2.89157130285591
C            1.06182905019813        0.68104591001209       -1.12381052327027
H            1.68344105459118        1.35096755769037       -0.53424143379735
H            0.00379857307442        0.90424251552849       -1.00680687463195
C            1.39121865126106       -0.71588137352535       -0.96669132283508
H            0.69904473929506       -1.46031785267227       -1.32140857754526
H            1.02173014460088       -0.94005490895129        0.83360709085422
H            2.42323253393386       -1.00597190359659       -0.86916203214934
O            0.79437623152106       -0.99588826568206        1.78476948859127
H            0.37036962796976       -1.84511192810625        1.92868149063941
10
 energy: -15.856128285421 gnorm: 0.002043186853 xtb: 6.6.1 (unknown)
Cl           1.41738775066766        1.16511302726064       -2.90037830701232
C            1.06586738345974        0.68235390661542       -1.12507536151036
H            1.69338666359448        1.35307425103796       -0.54417521709909
H            0.01012423901373        0.90855690583017       -1.00118789980150
C            1.39503497414154       -0.71356425083522       -0.97275604265364
H            0.70613438814241       -1.45903379210862       -1.33091507877265
H            1.00933398865021       -0.94064610423854        0.84520350222353
H            2.42545538144899       -1.00348644545253       -0.86906571095224
O            0.77921991681250       -0.99773946337535        1.79235932762842
H            0.37608664506938       -1.85654108673564        1.93935679094958
10
 energy: -15.856131551227 gnorm: 0.001010352666 xtb: 6.6.1 (unknown)
Cl           1.41802462819023        1.16373370287066       -2.89965937468307
C            1.06560107698050        0.68210953392770       -1.12406455931352
H            1.69323057021108        1.35281417792091       -0.54365239474423
H            0.01011168661378        0.90894340263172       -1.00044709545255
C            1.39455782164885       -0.71381042568939       -0.97163714539139
H            0.70596406060386       -1.45959680539459       -1.32996068912092
H            1.00932754539153       -0.93809963728467        0.84404876102490
H            2.42539342778619       -1.00388254839919       -0.86985112708269
O            0.77772720759382       -0.99704542932181        1.79152857810719
H            0.37809330598081       -1.85707902326305        1.93706104965601
10
 energy: -15.856136810319 gnorm: 0.001077484726 xtb: 6.6.1 (unknown)
Cl           1.41768855837624        1.15948466945138       -2.89922703412756
C            1.06610000141764        0.68166016821802       -1.12106856455786
H            1.69601640323872        1.35219773678279       -0.54352871066597
H            0.01135212839350        0.91088671776208       -0.99658594178891
C            1.39391206797588       -0.71415532516007       -0.96847869855525
H            0.70534892270702       -1.46038130106041       -1.32672599637015
H            1.00586565972043       -0.93016873898017        0.84048607004486
H            2.42594497090885       -1.00549905377112       -0.87129150923784
O            0.76461841481502       -0.99204084999001        1.78725791461801
H            0.39118420344735       -1.86389707525420        1.93252847364040
10
 energy: -15.856139703826 gnorm: 0.001009597782 xtb: 6.6.1 (unknown)
Cl           1.41546777752150        1.15850810390782       -2.90051695064749
C            1.06734948363075        0.68180539884203       -1.12069768496962
H            1.69880694522334        1.35276011349545       -0.54502029143514
H            0.01276448698838        0.91149198336487       -0.99475869693310
C            1.39455171472672       -0.71388739431221       -0.96743385049430
H            0.70517074273211       -1.45963476136399       -1.32503885460352
H            1.00334313548281       -0.92927242873257        0.84016206582025
H            2.42632425337342       -1.00571064134463       -0.87074628241125
O            0.75664914340811       -0.99006132432259        1.78534630450004
H            0.39760364791351       -1.86791210153589        1.93207024417387
10
 energy: -15.856143825491 gnorm: 0.001049665544 xtb: 6.6.1 (unknown)
Cl           1.41100048787018        1.15669077064031       -2.90354503453111
C            1.06997685081462        0.68270736296669       -1.12102700556865
H            1.70421454628980        1.35457207853674       -0.54912646114699
H            0.01589164358335        0.91324179637638       -0.99183806372945
C            1.39575717802212       -0.71295779882776       -0.96600122759763
H            0.70445579737879       -1.45758750254441       -1.32185367036213
H            0.99738854041711       -0.92853220306703        0.83972478953672
H            2.42670676381742       -1.00589412400895       -0.86719441169051
O            0.74227391990214       -0.98807586619922        1.78211824227021
H            0.41036560290514       -1.87607756587445        1.93210884581928
10
 energy: -15.856146540031 gnorm: 0.001173630052 xtb: 6.6.1 (unknown)
Cl           1.40898075158476        1.15434933939091       -2.90560353604772
C            1.07170886974419        0.68383522859362       -1.12173484448834
H            1.70772696359306        1.35607209901107       -0.55223746136717
H            0.01809815600934        0.91553097164996       -0.99070508286793
C            1.39596535741148       -0.71201124242339       -0.96456777991718
H            0.70376299563041       -1.45587214764975       -1.32001342451468
H            0.99197863038690       -0.92692489539406        0.83927024800996
H            2.42614902183503       -1.00587590212586       -0.86403139337221
O            0.73245169537941       -0.98792772491269        1.78029080872539
H            0.42120888942611       -1.88308877814150        1.93269846883961
10
 energy: -15.856151724059 gnorm: 0.000758302599 xtb: 6.6.1 (unknown)
Cl           1.40696818894166        1.14862348781176       -2.90974122500926
C            1.07450823566624        0.68696355601975       -1.12418211375383
H            1.71346142048417        1.35960969982439       -0.55839263388387
H            0.02175801911333        0.92140402929880       -0.99052164650417
C            1.39515307573982       -0.70959080437500       -0.96136604331671
H            0.70194056605200       -1.45213307196074       -1.31736787078061
H            0.98072867630190       -0.92404238088796        0.83843173554313
H            2.42398900648975       -1.00547589223374       -0.85561900553629
O            0.71709024439249       -0.99072888615013        1.77784670103400
H            0.44243389781936       -1.89654278934883        1.93427810520734
10
 energy: -15.856135583191 gnorm: 0.006302431946 xtb: 6.6.1 (unknown)
Cl           1.40638726144601        1.13973322685288       -2.91434026584944
C            1.07783969886346        0.69090460595716       -1.12618117342153
H            1.72112224222175        1.36335069905844       -0.56550482325056
H            0.02671002807735        0.93075487908168       -0.98990989508178
C            1.39293938837044       -0.70667845162080       -0.95690283128179
H            0.69957391996828       -1.44796592038209       -1.31550306004407
H            0.96332068606849       -0.91753865082060        0.83635437317427
H            2.42072980312456       -1.00582175640069       -0.84614991811639
O            0.69169580902054       -0.99141376496096        1.77379255264576
H            0.47771249383987       -1.91723791876671        1.93771104422525
10
 energy: -15.856154856730 gnorm: 0.001479963110 xtb: 6.6.1 (unknown)
Cl           1.40892560727425        1.14247088034504       -2.91186918731036
C            1.07579420081904        0.68963879425789       -1.12562570937008
H            1.71661183167929        1.36187978056978       -0.56194723627599
H            0.02400397722419        0.92781514998012       -0.99181460263511
C            1.39272508074306       -0.70768712512598       -0.95818931295572
H            0.70024314494953       -1.44967945770141       -1.31708781908985
H            0.97025120253339       -0.92007781405699        0.83693778669479
H            2.42105781220421       -1.00547997540654       -0.84973763809888
O            0.70475081906686       -0.99257364563419        1.77613923755387
H            0.46366765450690       -1.90821963922941        1.93656048448706
10
 energy: -15.856156807918 gnorm: 0.000523561113 xtb: 6.6.1 (unknown)
Cl           1.41152299059017        1.14044721935956       -2.91225188942754
C            1.07565914408365        0.69063778767142       -1.12635943256809
H            1.71639176657024        1.36264307161258       -0.56225176436228
H            0.02390977564594        0.92994556073080       -0.99380313128308
C            1.39114845857236       -0.70696633837143       -0.95683002614912
H            0.69922121036947       -1.44874796236432       -1.31740520092329
H            0.96710411539786       -0.91985217349284        0.83639897111329
H            2.41934412416858       -1.00526204874015       -0.84760588029195
O            0.70355041372604       -0.99437733045289        1.77613565201555
H            0.47017933187642       -1.91038083795441        1.93733870487624
