10
 energy: -15.992785750764 gnorm: 0.058064890539 xtb: 6.6.1 (unknown)
F            1.06452938300000        0.80950701100000       -2.80362507000000
C            1.06452938300000        0.80950701100000       -1.40362507000000
H            1.94287638300000        1.35470922800000       -1.03787480700000
H            0.18618238300000        1.35470922800000       -1.03787480700000
C            1.06452938300000       -0.60810721500000       -0.80457813500000
H            1.94770638300000       -1.16938293200000       -1.12624348900000
H            0.18135238300000       -1.16938293200000       -1.12624348900000
H            1.06452938300000       -0.57205238800000        0.28991828100000
O            0.85958987000000       -1.77423322200000        1.90045144000000
H            0.80519801800000       -2.30787364300000        2.65801641300000
10
 energy: -15.996279211205 gnorm: 0.012772144950 xtb: 6.6.1 (unknown)
F            1.06454471099224        0.87027491130921       -2.76177434194175
C            1.06465921845615        0.79077529818027       -1.38048862656786
H            1.95048167119361        1.34299629546447       -1.04474284098516
H            0.17554896164230        1.33793289872275       -1.04520478305482
C            1.06946485220733       -0.62387529387869       -0.84057028734898
H            1.95073630087070       -1.17230518104844       -1.17164556321581
H            0.18736212979157       -1.17555332023177       -1.16404863758970
H            1.07181810685684       -0.58315123186013        0.24572671506898
O            0.82628719052594       -1.74814615331954        1.95112094683105
H            0.82011980946331       -2.31154807733805        2.71994868580402
10
 energy: -15.996527171254 gnorm: 0.050463297203 xtb: 6.6.1 (unknown)
F            1.06818681009520        0.84894875482187       -2.72958105630463
C            1.06751211207172        0.79377665609285       -1.36052584968758
H            1.96158801350151        1.35132521053770       -1.05097622261737
H            0.16734673440059        1.34130204143019       -1.05115460856528
C            1.07588222380298       -0.62228154679684       -0.86598956713687
H            1.95199321970125       -1.15965192865190       -1.22092166167927
H            0.19462857656384       -1.16314150772258       -1.20146393574860
H            1.08035215710583       -0.60905484361989        0.21731208419010
O            0.71467445629832       -1.68009752845314        2.03306576257321
H            0.89885864845870       -2.37372516163822        2.73855632197632
10
 energy: -15.997565582982 gnorm: 0.007534637106 xtb: 6.6.1 (unknown)
F            1.06026288227149        0.84471293626951       -2.72592326424886
C            1.06412790267878        0.79946775632401       -1.35429188376232
H            1.95759892920696        1.35520029659664       -1.04087352955765
H            0.16396166912147        1.33989513355608       -1.03482384764902
C            1.07856058428153       -0.62553079265448       -0.87032499323205
H            1.95469190392543       -1.15503641717085       -1.24091486651415
H            0.19585538240359       -1.16227745135301       -1.21152504352735
H            1.08928234604755       -0.63806997235424        0.21680852536259
O            0.78586762874484       -1.71263315020521        2.01353799141918
H            0.83081372331835       -2.31832819300831        2.75665217870958
10
 energy: -15.998469777448 gnorm: 0.009485096405 xtb: 6.6.1 (unknown)
F            1.05473911953039        0.86467822376143       -2.72639511075454
C            1.06317059689324        0.79596857319933       -1.35043023693808
H            1.95204772839171        1.34905491118682       -1.02418847654841
H            0.16624267391458        1.32796680472915       -1.01255941389273
C            1.08334929416231       -0.63925898288725       -0.87778133975172
H            1.96033752028012       -1.15732305157136       -1.26576536713843
H            0.19820777712762       -1.16906338286006       -1.22687031152936
H            1.10101531718420       -0.68092635584136        0.21236914944737
O            0.76684839262887       -1.64512877239524        2.04559035919292
H            0.83506453188691       -2.31856782132129        2.73435201491294
10
 energy: -15.990094504121 gnorm: 0.101975624785 xtb: 6.6.1 (unknown)
F            1.04157449190164        0.91319317940041       -2.70885585564633
C            1.06047268653802        0.77925251836132       -1.31976070570978
H            1.93513869511925        1.32362958952143       -0.95445448838705
H            0.17090858963187        1.28375355555781       -0.93033796938811
C            1.09591472102756       -0.69562906251013       -0.90044768014164
H            1.97843768271113       -1.16866712295565       -1.34418983573988
H            0.20104771380365       -1.19424240960922       -1.28267459066163
H            1.13188223380441       -0.84574484128924        0.20048109370544
O            0.69957373345408       -1.34157105528352        2.15650379749453
H            0.86607240400825       -2.32657420519305        2.59205750147448
10
 energy: -16.000218850211 gnorm: 0.022840355170 xtb: 6.6.1 (unknown)
F            1.04322571717830        0.90866695453089       -2.69797882066295
C            1.06069964437130        0.78246143197762       -1.31433793950526
H            1.93961385544746        1.32668323948374       -0.95638075801886
H            0.16773706383384        1.28864866332927       -0.93384664149385
C            1.09419374381101       -0.68630129218478       -0.90086769563115
H            1.97403065896400       -1.16662392365827       -1.33867027573352
H            0.20372870307376       -1.19114541012662       -1.28092164050741
H            1.12457089160932       -0.82081712145858        0.19507856750926
O            0.71571559564270       -1.48361501804733        2.06288425619748
H            0.85750707806823       -2.23055737784564        2.67336221484617
10
 energy: -16.001533185562 gnorm: 0.025716640480 xtb: 6.6.1 (unknown)
F            1.04777645777545        0.90052310689018       -2.68194213510386
C            1.06186191724210        0.77252310721971       -1.29853775875440
H            1.94071380687356        1.31383802641366       -0.93725811658732
H            0.16876090130251        1.27741857163691       -0.91940434320025
C            1.09035664554999       -0.69569476568726       -0.88938297156210
H            1.97200778927606       -1.17331329238293       -1.31918002984933
H            0.20050847934610       -1.19753734597729       -1.27316643023915
H            1.11185648062218       -0.83141091632456        0.20524189092812
O            0.69592493218306       -1.45317735500061        2.00201577163412
H            0.89125554182892       -2.18576899078750        2.61993538973406
10
 energy: -16.003360814301 gnorm: 0.030599031823 xtb: 6.6.1 (unknown)
F            1.04896925807167        0.89593367654414       -2.66268270203759
C            1.06126937146731        0.76266332144176       -1.27775699848353
H            1.93982025800998        1.30034635601002       -0.91204134104653
H            0.16866735735919        1.26503838226586       -0.89596326067083
C            1.08904332111831       -0.71085868548226       -0.87741478744612
H            1.97301424953954       -1.18372837847145       -1.30867219652391
H            0.19893160246485       -1.20790897361288       -1.26804317244070
H            1.10558478505275       -0.86401706593936        0.22074780105904
O            0.67513825470017       -1.40454706810544        1.93490445951577
H            0.92058449421615       -2.12552141865006        2.55524346507426
10
 energy: -16.005819915800 gnorm: 0.034120168451 xtb: 6.6.1 (unknown)
F            1.04914075088989        0.88659341800229       -2.64501785821281
C            1.06071474674400        0.75085378537459       -1.25801759317887
H            1.93864700711889        1.28602329203829       -0.88892597776509
H            0.16935209619133        1.25190765833810       -0.87372350114457
C            1.08674623765520       -0.72449608899088       -0.85841547636870
H            1.97310956342984       -1.19523215152506       -1.28716467434630
H            0.19661405538485       -1.21879640102663       -1.25334246166696
H            1.09718729461174       -0.89038106826046        0.24425290729360
O            0.66856706786801       -1.35168714052798        1.85573153155720
H            0.94094413210616       -2.06738515742192        2.47294437083239
10
 energy: -16.008679216170 gnorm: 0.039749515665 xtb: 6.6.1 (unknown)
F            1.04839380945654        0.87763623333096       -2.62521111850365
C            1.06012891387664        0.73810337490971       -1.23634785156511
H            1.93740104605484        1.27163257997320       -0.86460796225661
H            0.17017481699529        1.23829547932560       -0.84899653584007
C            1.08498267499566       -0.73965801506523       -0.83956301252502
H            1.97386501775720       -1.20839349106328       -1.26587129576411
H            0.19477439471918       -1.23080203390930       -1.23954654728911
H            1.08797157705964       -0.92237907409503        0.26964679387985
O            0.66085306521146       -1.29097260646276        1.77462671760386
H            0.96247763587345       -2.00606230094353        2.38419207925983
10
 energy: -16.011594038550 gnorm: 0.042106771205 xtb: 6.6.1 (unknown)
F            1.04639014134091        0.86974883435101       -2.60631592920487
C            1.05947791709404        0.72582421486142       -1.21618902698474
H            1.93665898410590        1.25765722021993       -0.84247673652532
H            0.17089852492640        1.22499113511079       -0.82491176313080
C            1.08332531367595       -0.75341135765775       -0.82388859636253
H            1.97494285625819       -1.22149585194966       -1.24508906621148
H            0.19347230998832       -1.24234589707000       -1.22811609070933
H            1.07614730482567       -0.95221709330071        0.29401822815438
O            0.66707746001686       -1.22942338090140        1.70352828176644
H            0.97263213976767       -1.95192767766331        2.29776196620811
10
 energy: -16.019086286858 gnorm: 0.042384859442 xtb: 6.6.1 (unknown)
F            1.03625295681339        0.82321022897682       -2.53145403716252
C            1.05786184603780        0.69919249216308       -1.14789964134727
H            1.94769010654039        1.22824393492415       -0.79983013635894
H            0.16420973168323        1.19875666965327       -0.76970185172506
C            1.08035138414032       -0.78275937160829       -0.80197377026786
H            1.98165014010682       -1.25513645421751       -1.19074247728690
H            0.19228450012106       -1.26634333693800       -1.20948740132101
H            1.02749422306471       -1.03866786236757        0.36153632543988
O            0.71204270608536       -1.05055880489604        1.54382893870730
H            0.98118535740683       -1.82853734968962        2.05404531832224
10
 energy: -16.022374756200 gnorm: 0.021536285766 xtb: 6.6.1 (unknown)
F            1.03150776268998        0.80999284848252       -2.49155435894979
C            1.05902278296300        0.69413032746330       -1.11874791521172
H            1.96542871695390        1.21125522547030       -0.78892930664384
H            0.15597154557335        1.18862385380829       -0.75125205465510
C            1.07492588585376       -0.78748412305356       -0.84292663842771
H            1.98957260618827       -1.27357307377591       -1.16908958382504
H            0.18985761808167       -1.27562402046125       -1.23656274680455
H            0.96788855474601       -1.04745111907070        0.37029921956909
O            0.80704394182363       -0.96852435269080        1.56388804750952
H            0.93980353712633       -1.82394542017189        1.97319660443900
10
 energy: -16.024068970736 gnorm: 0.045268903458 xtb: 6.6.1 (unknown)
F            1.03267262500811        0.81496879519230       -2.49541540977229
C            1.06363186013937        0.66929601134927       -1.12338190860321
H            1.97831305931857        1.16792250235508       -0.78514292411983
H            0.16573218782900        1.16874279757187       -0.74725833596863
C            1.05581244718491       -0.78891503617918       -0.84866839131297
H            1.99161373605934       -1.30595451620672       -1.06351595364983
H            0.17620451374567       -1.29909974019124       -1.21584828113473
H            0.89088232358665       -0.92636273072957        0.41563239645238
O            0.89668050629300       -0.91600440953643        1.53090194603221
H            0.92947969283527       -1.85719352762522        1.84101812907681
10
 energy: -16.025954754073 gnorm: 0.023371901350 xtb: 6.6.1 (unknown)
F            1.02776976871177        0.88955261454532       -2.51546987973364
C            1.06517307375855        0.65459674539801       -1.13521808415961
H            1.97236401753196        1.13564993541376       -0.75698480305427
H            0.17856302885518        1.14485366115565       -0.71617297657413
C            1.05362828969692       -0.81374085720310       -0.87981266563404
H            1.99652511466620       -1.32951498859796       -1.05828237821093
H            0.17452236843614       -1.33194882814253       -1.24321767844635
H            0.89116155057168       -0.86985462559518        0.41276560996199
O            0.85802025810315       -0.93161837195345        1.53635398549500
H            0.96329548166835       -1.82057513902027        1.86436013735584
10
 energy: -16.025957644278 gnorm: 0.029422504234 xtb: 6.6.1 (unknown)
F            1.01153631307432        0.94338046665348       -2.49752769850431
C            1.06098074311843        0.63676481182285       -1.11441677390469
H            1.96212595990958        1.10943864135045       -0.71738158186903
H            0.18246242493569        1.11483788443016       -0.66200177209931
C            1.06267903416448       -0.85272274898102       -0.89653566118029
H            1.99961527800026       -1.35039724745052       -1.09076500407058
H            0.18464654518717       -1.36595676230123       -1.27512637429275
H            0.92069421062680       -0.92943956454517        0.43954911173876
O            0.82083371451695       -0.83848404701065        1.51855261918286
H            0.97544872846619       -1.74002128796803        1.80397440199919
10
 energy: -16.027885312887 gnorm: 0.015569746942 xtb: 6.6.1 (unknown)
F            1.01070221034198        0.90629031252251       -2.49201498447338
C            1.05934440953109        0.64531053200533       -1.12411171354891
H            1.97045094729006        1.12518509922644       -0.76374970450246
H            0.17536288054219        1.13298616908222       -0.70523271143478
C            1.06392322353208       -0.82640115445996       -0.89370721644535
H            1.98987928808674       -1.33724006767684       -1.08433026259979
H            0.19013440395999       -1.34912211128927       -1.26014574249362
H            0.92999546282627       -0.87717248976207        0.46670618852218
O            0.84207488207156       -0.88706688122815        1.54826970712031
H            0.94915524381793       -1.80536926242000        1.81663770685570
10
 energy: -16.028278805563 gnorm: 0.017620828038 xtb: 6.6.1 (unknown)
F            1.00793759912684        0.90779364331937       -2.49058330266291
C            1.06223686845831        0.64126824317179       -1.12968966238744
H            1.98041463779780        1.11479686771849       -0.77374907077508
H            0.17726072386356        1.12667128434642       -0.70921912202600
C            1.05697375409878       -0.82405827826900       -0.90298472721961
H            1.99242917514424       -1.34583086606088       -1.05297610430741
H            0.18638747578702       -1.35595223956980       -1.25949525960963
H            0.90743203376552       -0.83345286912330        0.50803911404961
O            0.85326766185037       -0.89349258671715        1.53563213329190
H            0.95668302210743       -1.81034305281576        1.78334726864649
10
 energy: -16.028819106223 gnorm: 0.021486816188 xtb: 6.6.1 (unknown)
F            0.99938913011840        0.94052008619734       -2.50199150683694
C            1.06524237262815        0.64049421215812       -1.15005934742464
H            1.98916475724049        1.10301913014609       -0.78613397254953
H            0.17983869629133        1.11363219963325       -0.70977571753936
C            1.05099531010760       -0.82637547307278       -0.94311789526964
H            1.99957220574882       -1.35648193712946       -1.04288839176012
H            0.18200408968361       -1.36854991950145       -1.28208687736528
H            0.89399008951812       -0.77614579098936        0.55290056244943
O            0.88851709752229       -0.89792206852402        1.59338242734075
H            0.93230920314107       -1.84479029291758        1.77809198595526
10
 energy: -16.029620902321 gnorm: 0.011029831901 xtb: 6.6.1 (unknown)
F            0.98921886828045        0.94449068772261       -2.50155226863819
C            1.06246093712381        0.64066491887491       -1.15110522902493
H            1.98241270193175        1.10887279475363       -0.79043248888232
H            0.17930981829693        1.11090189186449       -0.70385329365994
C            1.06465858449153       -0.83021438596528       -0.94880799409801
H            1.99956555059302       -1.35287823455046       -1.07027218244862
H            0.18980066880375       -1.36521549465897       -1.28088975905242
H            0.92651605771495       -0.79956413545749        0.57689700089803
O            0.85650795434593       -0.89725029451231        1.59682490444252
H            0.93057181041776       -1.83240760207098        1.78151257746382
10
 energy: -16.030133335880 gnorm: 0.008393732766 xtb: 6.6.1 (unknown)
F            0.98829389388578        0.94500429176849       -2.52498054848479
C            1.06444027796923        0.65304845966241       -1.16798682247691
H            1.98191896607774        1.12438133165340       -0.80544932465188
H            0.18569131175318        1.12595783616468       -0.71576297585929
C            1.06763959730592       -0.81736963683992       -0.95372291117047
H            2.00302301480648       -1.34133339659551       -1.07197340780996
H            0.18806605738064       -1.35514849110946       -1.27227596537645
H            0.91943975937397       -0.84088673760749        0.59059433188384
O            0.85512256097514       -0.91681421544615        1.61002642338265
H            0.92738751247179       -1.84943929565028        1.81985246756320
10
 energy: -16.030471118813 gnorm: 0.007888509857 xtb: 6.6.1 (unknown)
F            0.98338268180424        0.94301172560083       -2.55080545555979
C            1.06716913431849        0.66754806330639       -1.18612193932391
H            1.98504362747898        1.14405422927519       -0.83138557658457
H            0.19270557177765        1.14545148500378       -0.73156054108457
C            1.07206511267312       -0.80107392209191       -0.96367513954170
H            2.00766304018317       -1.32480824000827       -1.08115642847911
H            0.18503997969005       -1.34028176783347       -1.26151191164538
H            0.93259415814686       -0.88982974402291        0.61628904122730
O            0.83076759871462       -0.94549457886506        1.62738120406291
H            0.92459204721268       -1.87117710436440        1.87086801392876
10
 energy: -16.030616558789 gnorm: 0.005502657054 xtb: 6.6.1 (unknown)
F            0.98112927110986        0.94334158640117       -2.56352787948999
C            1.06876546318077        0.67467226705547       -1.19544622333876
H            1.98764812435193        1.15506382489107       -0.84856771150106
H            0.19462361169035        1.15469589366595       -0.74320535170512
C            1.07571545548451       -0.79195209965610       -0.97279492534471
H            2.01217937797765       -1.31462513644362       -1.08476664958677
H            0.18674059496584       -1.33127684323264       -1.26172438312090
H            0.91653974589833       -0.91772738597592        0.63692211943005
O            0.84279190819261       -0.96078035052647        1.64253309036360
H            0.91488939914800       -1.88401161017873        1.89889918129363
10
 energy: -16.030737818330 gnorm: 0.002432190698 xtb: 6.6.1 (unknown)
F            0.97443168599700        0.94886586081925       -2.57388913887310
C            1.07032647441026        0.67938238953014       -1.20466418067352
H            1.99147723634543        1.16191413821781       -0.86748010343785
H            0.19734612564523        1.16027274830480       -0.75161884524962
C            1.07946381763596       -0.78516281526692       -0.98689777904856
H            2.01611804131438       -1.30777733507834       -1.09009489409245
H            0.18785669269844       -1.32513505747328       -1.26302263941639
H            0.92288688482190       -0.93347814060516        0.66559360314265
O            0.83377765461844       -0.97596264992467        1.65920605008499
H            0.90733833851283       -1.89551899252346        1.92118919456382
10
 energy: -16.030808819886 gnorm: 0.002692057865 xtb: 6.6.1 (unknown)
F            0.96686114770028        0.96112870255440       -2.57640813946120
C            1.07150484874949        0.67930216132046       -1.20979556439989
H            1.99454418321980        1.16060595251258       -0.87686841421225
H            0.19971590857844        1.15704257754358       -0.75083884866311
C            1.08254202229921       -0.78480723624329       -1.00276132795779
H            2.01943715306642       -1.30835235847431       -1.09322426026112
H            0.19052389473056       -1.32631565006285       -1.27096055095919
H            0.92420935268844       -0.93488490621871        0.68516818802587
O            0.83066750596061       -0.97859411895922        1.67146464739647
H            0.90101693500661       -1.89772497797246        1.93254553749219
10
 energy: -16.030868865718 gnorm: 0.002397733969 xtb: 6.6.1 (unknown)
F            0.95557078408881        0.97919767022042       -2.57350186003863
C            1.07273853737505        0.67566174612813       -1.21244246767473
H            1.99807442347122        1.15303808562448       -0.88072495181221
H            0.20348598895706        1.14666950076603       -0.74046467373408
C            1.08591588225126       -0.78943924756999       -1.02160267303786
H            2.02329548397709       -1.31390116510633       -1.09618512578418
H            0.19490080677367       -1.33324843503623       -1.28547239087065
H            0.92502590804283       -0.92660970990332        0.69893241052344
O            0.82761913664734       -0.97165604132625        1.68123067756607
H            0.89439600041554       -1.89231225779678        1.93855232186279
10
 energy: -16.030897568453 gnorm: 0.001108048454 xtb: 6.6.1 (unknown)
F            0.94375989871666        0.99273772927713       -2.56776881125239
C            1.07379526477919        0.67111267327251       -1.21210076462530
H            2.00140633920554        1.14464416740700       -0.88087007647727
H            0.20823373486181        1.13574362903380       -0.72568458078844
C            1.08876416540077       -0.79550252120253       -1.03461081206110
H            2.02687202121280       -1.31970546077781       -1.09742746463019
H            0.19963258515562       -1.34101364581612       -1.30044914594691
H            0.92340276108587       -0.91647734126155        0.70281016617943
O            0.82629780029355       -0.96073862454507        1.68501658151152
H            0.88885838128804       -1.88340045938718        1.93940617509063
10
 energy: -16.030912297216 gnorm: 0.001392411783 xtb: 6.6.1 (unknown)
F            0.92930954949000        1.00038239649903       -2.56192220378246
C            1.07516918773394        0.66765533797700       -1.21084083469373
H            2.00580918399180        1.13871386822429       -0.88389017551479
H            0.21516658066278        1.12779733537472       -0.70964124414160
C            1.09205574948790       -0.80012863150252       -1.04275274003943
H            2.03120546185466       -1.32302678364430       -1.09618174073757
H            0.20539098099394       -1.34657027365153       -1.31558391372360
H            0.91818628771029       -0.91132427289726        0.70270707044270
O            0.82591067394267       -0.95121380219685        1.68565996747137
H            0.88281929613189       -1.87488502818241        1.94076708171910
10
 energy: -16.030938494727 gnorm: 0.002173732014 xtb: 6.6.1 (unknown)
F            0.90241386670063        1.00664365477416       -2.55380052261027
C            1.07804567425133        0.66439588952705       -1.20900122847365
H            2.01476324807060        1.13351812445760       -0.89587624317070
H            0.22878477427479        1.12046304621686       -0.68497891524829
C            1.09832008399804       -0.80446037183699       -1.05066267486304
H            2.03907972314953       -1.32509919231498       -1.09165269362836
H            0.21588708667486       -1.35141803979767       -1.33753740806516
H            0.90936090892829       -0.91162779687028        0.70100864331835
O            0.82094135728071       -0.94126628261468        1.68434831369162
H            0.87342622867108       -1.86374888554088        1.94647399604950
10
 energy: -16.030984780900 gnorm: 0.007017405075 xtb: 6.6.1 (unknown)
F            0.81220781132205        1.02352243971894       -2.53030668831874
C            1.08843401025814        0.65676543356638       -1.20532257996668
H            2.04531685169518        1.12206511771799       -0.94443921485524
H            0.27563542781851        1.10277656161142       -0.60919438357188
C            1.11939626514421       -0.81428421899362       -1.07215211183866
H            2.06474702679487       -1.32874112088213       -1.07361296567373
H            0.25070701741888       -1.36283209219707       -1.40219625033245
H            0.88420749059559       -0.92098755114519        0.69672517070059
O            0.79536169491403       -0.91766176314783        1.67957581124165
H            0.84500935603838       -1.83322266024873        1.96924447961517
10
 energy: -16.031032058769 gnorm: 0.004195126366 xtb: 6.6.1 (unknown)
F            0.82109315239826        1.01637542827661       -2.53079836017036
C            1.08741086615261        0.65845509227825       -1.20500606511254
H            2.04117105943412        1.12613953576038       -0.94266665833019
H            0.27380735212403        1.10819447863917       -0.61893712279458
C            1.11642616358004       -0.81148729050840       -1.06490663353653
H            2.06069192018697       -1.32652857998528       -1.07120254546348
H            0.24784510623759       -1.35891629765079       -1.39536785673531
H            0.88451769137487       -0.92497555851940        0.69323851108277
O            0.79708539264511       -0.92263307440394        1.67693898801655
H            0.85097424786625       -1.83722358788643        1.96702901004370
10
 energy: -16.031135359335 gnorm: 0.003850519544 xtb: 6.6.1 (unknown)
F            0.76688356116466        1.01631785500761       -2.51572507040972
C            1.09390430721321        0.65807196915860       -1.20523550184950
H            2.05700410908956        1.12835788568537       -0.98516755144790
H            0.30899662509061        1.10888000830596       -0.58350604577756
C            1.12782138593712       -0.81045269487138       -1.06810846456964
H            2.07291358147962       -1.32302602623797       -1.04989510292475
H            0.27015194595140       -1.35781623560400       -1.42645296287250
H            0.86741638971490       -0.94518467042161        0.68830104434012
O            0.77472325758741       -0.92100626180276        1.67038286271662
H            0.84120778877138       -1.82674168321964        1.98372805979485
10
 energy: -16.031189969400 gnorm: 0.013735006788 xtb: 6.6.1 (unknown)
F            0.62264684349231        1.02879236544558       -2.48146681506189
C            1.11153874961134        0.65909039526553       -1.21406754481048
H            2.09979406317686        1.13276400000888       -1.10572901687104
H            0.40119192243958        1.11081581966131       -0.49394028208987
C            1.16119472760702       -0.80620320801903       -1.08736652343976
H            2.10830452243748       -1.31320165125159       -0.99810549560531
H            0.32947407986901       -1.35832199606771       -1.49530630681205
H            0.82975629677463       -0.99604210328245        0.69081356601812
O            0.70668627407222       -0.92381672037920        1.66277673643029
H            0.81043547251941       -1.80647675538115        2.03071294924204
10
 energy: -16.031342452440 gnorm: 0.006232740655 xtb: 6.6.1 (unknown)
F            0.66591497735938        1.02572773268891       -2.49521302742992
C            1.10668146303165        0.66649014560717       -1.22283982177321
H            2.08407529312384        1.13986603717170       -1.09429306915394
H            0.38112930561252        1.12561729295103       -0.53770331218092
C            1.15270690665052       -0.79751259427163       -1.08003835618443
H            2.09679956702851       -1.30810555209197       -1.00488141458034
H            0.31359441169052       -1.35257701652808       -1.45086997155916
H            0.84640698544705       -0.99776128179704        0.70161699779199
O            0.70939322882279       -0.94583577110138        1.66885042143420
H            0.82432081323309       -1.82850884662852        2.02369282063578
10
 energy: -16.031437827648 gnorm: 0.003779199915 xtb: 6.6.1 (unknown)
F            0.62898466461668        1.02763034608048       -2.48141164225541