10
 energy: -14.834970582231 gnorm: 0.945411623461 xtb: 6.6.1 (unknown)
I            1.41120478500000        0.98422212800000       -3.00341851200000
C            1.06452938300000        0.80950701100000       -1.40362507000000
H            1.94287638300000        1.35470922800000       -1.03787480700000
H            0.18618238300000        1.35470922800000       -1.03787480700000
C            1.06452938300000       -0.60810721500000       -0.80457813500000
H            0.99546469500000       -1.35887662600000       -1.55936476900000
H            0.40706418000000       -0.57302011700000        0.18869913000000
H            2.14139225100000       -0.74294982400000       -0.06706488000000
O            0.85958987000000       -1.77423322200000        1.90045144000000
H            0.80519801800000       -2.30787364300000        2.65801641300000
10
 energy: -15.045134569845 gnorm: 0.133136433518 xtb: 6.6.1 (unknown)
I            1.44304123330491        0.99482375997602       -3.24002350021231
C            1.05541827762171        0.80520884034788       -1.28050355808997
H            1.94047750605965        1.36098664042747       -0.98071485354066
H            0.17212537899497        1.35973910814448       -1.00717695424094
C            1.08654951543153       -0.60826117074331       -0.74859150318786
H            0.99283640227046       -1.35577635319837       -1.53753656966454
H            0.40532408389000       -0.59077312642736        0.16712926840679
H            2.11656025844547       -0.74768085240844       -0.09670375104146
O            0.86296015452765       -1.76771329528740        1.89322351960319
H            0.80273852045366       -2.31246660283097        2.66426390496777
10
 energy: -15.069943402940 gnorm: 0.063623537764 xtb: 6.6.1 (unknown)
I            1.42628162022622        0.97886190482681       -3.29406732094085
C            1.09541611748218        0.82600919855640       -1.27711722743394
H            1.94039260980211        1.40536558035544       -0.91618013188371
H            0.17664397106947        1.35325822220736       -1.02983164463626
C            1.11660579533905       -0.57309145027925       -0.69829367667933
H            0.99066341978018       -1.34200377911704       -1.45510916556367
H            0.37752522854527       -0.65491447309186        0.12480164396295
H            2.07045145950055       -0.78904292729143       -0.18074347843449
O            0.89785139441474       -1.75331543810661        1.89575075216318
H            0.78619971484022       -2.31303989005982        2.66415625244610
10
 energy: -15.075161612237 gnorm: 0.048999946220 xtb: 6.6.1 (unknown)
I            1.39595427556258        0.94518037796631       -3.33948616941293
C            1.13100710500255        0.83271682952517       -1.26172232345935
H            1.93660756601990        1.44475565507251       -0.85152420733390
H            0.18268716583662        1.33327294465074       -1.04263717633471
C            1.14747140346690       -0.57065157460408       -0.68298021094773
H            0.93838096441083       -1.34386720669954       -1.42795352051316
H            0.39365268610768       -0.66714251731640        0.08686416579488
H            2.07636924192717       -0.75594013241376       -0.21616006595555
O            0.95163323811024       -1.74820440839286        1.91133197884041
H            0.72426768455549       -2.33203301978811        2.65763353232207
10
 energy: -15.076815525430 gnorm: 0.032478308958 xtb: 6.6.1 (unknown)
I            1.37665915301020        0.92033929020768       -3.36286001916889
C            1.13480773134674        0.84937358856662       -1.24857590885657
H            1.91390032564592        1.48113926458316       -0.81113165555271
H            0.16713413578859        1.33211061481358       -1.06151301132558
C            1.16465759602671       -0.55832928162059       -0.67217092774496
H            0.92910398360761       -1.31623327322481       -1.42422653932575
H            0.40614116343594       -0.68994763794531        0.09243777384504
H            2.14909987446421       -0.82828911190703       -0.25164972091080
O            0.93117861408597       -1.73104424053849        1.92105262287160
H            0.70534875358809       -2.32103226493485        2.65200338916865
10
 energy: -15.078107356740 gnorm: 0.024538428540 xtb: 6.6.1 (unknown)
I            1.36614141119754        0.92096588619976       -3.37043676577215
C            1.12891611145445        0.85021714304857       -1.24107588060669
H            1.90629744501388        1.47539256401625       -0.80395812282450
H            0.16643097694629        1.32952851631690       -1.05621165649492
C            1.16632758014718       -0.56387915724121       -0.68858980594106
H            0.93427803954517       -1.31487634287669       -1.44271859919208
H            0.46368655898751       -0.70775722647546        0.12389994894395
H            2.13701243655216       -0.82448509559055       -0.25870810629074
O            0.93655435016555       -1.70402537513185        1.93649195026627
H            0.67238642099024       -2.32299396426579        2.63467304091197
10
 energy: -15.079582927485 gnorm: 0.015298437702 xtb: 6.6.1 (unknown)
I            1.36156942615252        0.91588752655940       -3.36183157623319
C            1.11819903481036        0.83393592873944       -1.20905820000041
H            1.89118843779575        1.45592645715414       -0.77683742378928
H            0.15812883741383        1.30332518107233       -1.03362400333979
C            1.17959552241544       -0.58844447860205       -0.69528777985192
H            0.92111402705724       -1.32090362601123       -1.45692840889940
H            0.52340724321725       -0.72249928280849        0.17607090417542
H            2.18119726370198       -0.78634759928651       -0.32899961760075
O            0.91863125227900       -1.64966930498864        1.93575178109481
H            0.62500028615659       -2.30312385382852        2.58411032744458
10
 energy: -15.080351884226 gnorm: 0.064198677335 xtb: 6.6.1 (unknown)
I            1.36424537413642        0.92631988852734       -3.34806703397373
C            1.09243235475991        0.81520453218751       -1.16186630782484
H            1.84776037506065        1.45211182144455       -0.72825021358268
H            0.11555368502800        1.25161815658515       -1.01143927678591
C            1.22264648174940       -0.62144887009515       -0.70270123045806
H            0.88201374590930       -1.33205269885859       -1.46338478457851
H            0.64871077750651       -0.74846808133717        0.25581125826583
H            2.25946113504134       -0.81590903513574       -0.43280393325558
O            0.93298426364957       -1.50644502688857        1.95617844742896
H            0.51222313815883       -2.28284373842960        2.46988907776464
10
 energy: -15.084743682549 gnorm: 0.034782805753 xtb: 6.6.1 (unknown)
I            1.38961020527177        0.94907424420464       -3.33347387355856
C            1.07127428539058        0.80486751222085       -1.12412731037891
H            1.81017314608903        1.46173630292557       -0.68404352593183
H            0.07015699312595        1.20921381741348       -1.00192007021704
C            1.26732736659927       -0.64200888360270       -0.70423353133215
H            0.83668616153930       -1.34347979816467       -1.44954739705976
H            0.75380863974579       -0.76876812827575        0.31174441144390
H            2.30557378030200       -0.88068032604277       -0.49961304493211
O            0.86578518604563       -1.45427885882033        1.90996009704992
H            0.50763556689062       -2.19758893385860        2.40862024791655
10
 energy: -15.092346664890 gnorm: 0.028093946835 xtb: 6.6.1 (unknown)
I            1.43709184577726        0.96476806127372       -3.29495493586477
C            1.05910455411932        0.77568425861671       -1.08182803635134
H            1.78568461217150        1.44428691779135       -0.62687739677261
H            0.04673401400843        1.15692804103434       -0.97289549476700
C            1.25803131371051       -0.66604239700502       -0.68649571246412
H            0.80024873991046       -1.36991094290387       -1.39264524545677
H            0.81401412116104       -0.84253866155554        0.37244123525370
H            2.32997990434502       -0.90461516007882       -0.57753498761973
O            0.81725992204899       -1.29471291081933        1.84765269003113
H            0.52988230374742       -2.12576025835394        2.24650388701150
10
 energy: -15.098649122968 gnorm: 0.078198676531 xtb: 6.6.1 (unknown)
I            1.46864384432342        0.97129745304200       -3.25238231039316
C            1.03811186572648        0.73784503170466       -1.02146496709095
H            1.74926067504128        1.42000159718856       -0.56422183775503
H            0.01473028500665        1.09257221585872       -0.93218056461026
C            1.29447830601050       -0.70487108334416       -0.67265738170213
H            0.74686998955210       -1.39529235729362       -1.35320042194618
H            0.91846758662781       -0.91311210503619        0.45845921096094
H            2.34859938646865       -0.95117666819574       -0.61809691247087
O            0.74280285139162       -1.06704510082837        1.77431437944931
H            0.55606654085141       -2.05213203509644        2.01479680855833
10
 energy: -15.105800961202 gnorm: 0.062175796256 xtb: 6.6.1 (unknown)
I            1.49771917984291        0.97460259039788       -3.20458312889788
C            1.03036228979862        0.70123654535152       -0.99335684037662
H            1.73593178847928        1.38996843692814       -0.53789630695029
H            0.01475300950944        1.04984612217194       -0.89324498188433
C            1.28435216953934       -0.71301866601171       -0.64551756003020
H            0.72284574988392       -1.41307620865834       -1.27576499175697
H            0.94624875092850       -0.98229872084490        0.52503912051881
H            2.31770106449168       -0.95720219124699       -0.60892215452365
O            0.77926501120501       -1.00585967915287        1.60477117993058
H            0.54885231732125       -1.90611128093525        1.86284166697046
10
 energy: -15.106320044611 gnorm: 0.101032893792 xtb: 6.6.1 (unknown)
I            1.52381384754002        1.03557135511090       -3.20491713889752
C            1.03346606071867        0.70107900483536       -1.00773115110515
H            1.70561134780822        1.40328032681689       -0.50614593222746
H           -0.00792520295089        0.99873577027199       -0.90485032773056
C            1.27173575050377       -0.69750251799381       -0.71266768640634
H            0.70096631304304       -1.42280418633250       -1.28071807068806
H            1.04411058836482       -0.98433812679738        0.57680263507379
H            2.37066256832771       -0.94858397081753       -0.75464208321575
O            0.74774393431798       -1.06272084645618        1.67279577555229
H            0.48784612332662       -1.88462986063830        1.95543998264455
10
 energy: -15.113607372451 gnorm: 0.048129889256 xtb: 6.6.1 (unknown)
I            1.54680752797931        1.04154114571038       -3.19754033689691
C            1.02518436332816        0.68722266800407       -0.99349834452029
H            1.68147374508279        1.39145104960853       -0.47892437763728
H           -0.03158772680589        0.96584652189733       -0.91674043774898
C            1.29108932720668       -0.70385765329307       -0.72691461464007
H            0.67235696018363       -1.45141403105739       -1.24515639373225
H            1.10043338878953       -0.96383281214990        0.66136626130153
H            2.36747712721109       -0.97039847421816       -0.75734627666292
O            0.73739284855959       -0.96645311431462        1.65310396937058
H            0.48740376946504       -1.89201835218781        1.83501655416650
10
 energy: -15.112707073374 gnorm: 0.078185227234 xtb: 6.6.1 (unknown)
I            1.54095558244799        1.07556712581315       -3.21175293195438
C            1.02588749538379        0.68151530711120       -1.03753783589796
H            1.68432421604007        1.36302301764890       -0.52227076750569
H           -0.00247197790026        0.97727963632009       -0.93527374725711
C            1.30701837021548       -0.68028788733935       -0.76721700909221
H            0.69928106615180       -1.46373395156649       -1.21055153925044
H            1.04773879416491       -0.89536137128251        0.66881041128314
H            2.26890874090280       -0.97785811823199       -0.64181550165523
O            0.80635072033954       -1.01239913650186        1.65765669512989
H            0.50003832325380       -1.92965767397175        1.83331822919999
10
 energy: -15.113704666857 gnorm: 0.097902336565 xtb: 6.6.1 (unknown)
I            1.56918780833442        1.09936632721359       -3.20087534651051
C            1.00590413238676        0.67196252168651       -1.01342654227332
H            1.63859368321877        1.36606739064632       -0.47668566612848
H           -0.03791311380291        0.94685784013048       -0.95523120665026
C            1.32381278744760       -0.70054402620403       -0.78185293773503
H            0.65507473025218       -1.46501872978779       -1.20471397129490
H            1.13768015565235       -0.91725736261077        0.76636227378031
H            2.34317677795291       -1.00863934748967       -0.72883988830325
O            0.81615496692393       -0.99208950288746        1.62920277939062
H            0.42635940263394       -1.86261816269780        1.79942650872477
10
 energy: -15.108248718406 gnorm: 0.093805183287 xtb: 6.6.1 (unknown)
I            1.57232199699700        1.13933954575310       -3.20404287152201
C            1.01808701263310        0.68980589546314       -1.00226730073281
H            1.64351304414537        1.39082237805194       -0.44572224492627
H           -0.04392635159086        0.95636608858434       -0.97554408474248
C            1.28989498693537       -0.72837952490632       -0.80180118036841
H            0.64311815709775       -1.44223734967811       -1.26313850365880
H            1.10641899460610       -0.98493407827249        0.70676261361684
H            2.45065572495131       -1.03145656173855       -0.81144820532073
O            0.73368285026399       -0.98211253162928        1.73280237024063
H            0.46426491496081       -1.86912691362840        1.89776541041380
10
 energy: -15.119167376807 gnorm: 0.033511108505 xtb: 6.6.1 (unknown)
I            1.57172258305374        1.15775249320383       -3.20704553792816
C            1.01984405965044        0.67124935022022       -1.02094817571172
H            1.64029702917789        1.36847770501260       -0.46528356877669
H           -0.03180162091978        0.93100954162325       -0.96775693437599
C            1.32069343154015       -0.70938272706002       -0.82446674750183
H            0.64072403908311       -1.45555444762454       -1.23472436520010
H            1.11403425269652       -0.94383853366844        0.73350343842383
H            2.36918867003587       -1.02167690205294       -0.75000553477175
O            0.77822918893303       -0.98239421524366        1.71435564498574
H            0.45509969774896       -1.87755531641093        1.85573778385652
10
 energy: -15.119875831495 gnorm: 0.029983362094 xtb: 6.6.1 (unknown)
I            1.58446853870001        1.18829624138987       -3.20096770204592
C            1.02086681652563        0.65868305612308       -1.02504929396450
H            1.64294292683948        1.34288350265691       -0.46719019993449
H           -0.02585533245013        0.92312226121737       -0.97892995299451
C            1.31106543776267       -0.70931791398248       -0.84737537776723
H            0.66074060003715       -1.45430335032574       -1.22607915260821
H            1.10819618548158       -0.95771779657293        0.78785745042798
H            2.32000339757686       -1.01608734303039       -0.75728604536098
O            0.80175514717101       -0.97431412812852        1.71022188044053
H            0.45384761335567       -1.86315758134781        1.83816439680715
10
 energy: -15.120819955036 gnorm: 0.033050224869 xtb: 6.6.1 (unknown)
I            1.57825371510245        1.21764974248504       -3.21448321255133
C            1.01545971174509        0.65653180357865       -1.02975798827415
H            1.62532009009462        1.35258068729098       -0.47107473907785
H           -0.04033926826498        0.90489165102253       -0.99665985773356
C            1.34331540059821       -0.71392635970326       -0.85927771033213
H            0.63089107558515       -1.46893507855276       -1.21497197801217
H            1.15501598728519       -0.91849868581723        0.81501761373343
H            2.35959387824906       -1.01380534558704       -0.77886558262998
O            0.81385575873099       -1.00710937148498        1.72562418879737
H            0.39666498187415       -1.87129209523256        1.85781526908023
10
 energy: -15.121608511464 gnorm: 0.020432646356 xtb: 6.6.1 (unknown)
I            1.60221991360565        1.24260240999742       -3.21320015346656
C            1.02163189062622        0.65643164216897       -1.03802233260943
H            1.62783659332031        1.35218843989308       -0.46421318781290
H           -0.03435500601437        0.90722889648115       -1.01388723277397
C            1.31850999306146       -0.71413134930511       -0.86812821193102
H            0.62468062130669       -1.46863122527623       -1.22054870855618
H            1.11406685645101       -0.93599715272377        0.80245143348122
H            2.36144641242321       -1.02363245526330       -0.77593446767983
O            0.80326913345389       -1.00005568671142        1.75013226471494
H            0.43872492276586       -1.87791657126141        1.87471659963355
10
 energy: -15.122547863355 gnorm: 0.014764979977 xtb: 6.6.1 (unknown)
I            1.58417551613002        1.29172652062765       -3.23692495437698
C            1.02848734220325        0.64698947971043       -1.04353836451446
H            1.64590464826472        1.34801656937101       -0.49337238525556
H           -0.02433160541236        0.90454783435131       -1.02207909523902
C            1.33437425145950       -0.72207285507524       -0.87400539686566
H            0.64131233779402       -1.47218688197835       -1.22292144141757
H            1.06951132989301       -0.92812401244125        0.83391669155593
H            2.36936495925625       -1.02805403535520       -0.79347773438513
O            0.79789417800127       -1.01221908248381        1.78524364160475
H            0.43133837341024       -1.89053658872717        1.90052504189353
10
 energy: -15.123574256827 gnorm: 0.018992953350 xtb: 6.6.1 (unknown)
I            1.54807385135241        1.30929979684205       -3.28608829347400
C            1.03997397354608        0.64823157568870       -1.03559942192176
H            1.67272569802383        1.34071482424677       -0.50042171402017
H           -0.00947679376935        0.90609811715423       -1.01557937242376
C            1.36824381190052       -0.71637270103377       -0.92158859235652
H            0.66731812966754       -1.46258743344053       -1.24767014163113
H            0.99534789471255       -0.92935749132871        0.87369919577975
H            2.38651077667263       -1.02110265754965       -0.80593880622564
O            0.78231581347625       -1.02716293519302        1.82582393130395
H            0.42699817541745       -1.90967414738670        1.94672921796911
10
 energy: -15.124389300314 gnorm: 0.019156651934 xtb: 6.6.1 (unknown)
I            1.51415031057357        1.36799376320700       -3.32916423815232
C            1.05084639463443        0.63712691400529       -1.03694247807723
H            1.71528110204479        1.34058591706018       -0.55401892785251
H            0.00589021922428        0.90333689669755       -1.01603296423744
C            1.39117725556965       -0.71283377265924       -0.96144134496238
H            0.68617566726134       -1.46056650987018       -1.27427159733400
H            0.93123949052376       -0.94057441536366        0.93006910444931
H            2.40331270721274       -1.01586973053985       -0.80435168115018
O            0.75126342057605       -1.04328086840883        1.87278159731805
H            0.42869476337932       -1.93783124612888        2.00673853299853
10
 energy: -15.125400863677 gnorm: 0.013888722568 xtb: 6.6.1 (unknown)
I            1.45788858304838        1.44030686716359       -3.43387391134852
C            1.08005925863890        0.62796670047705       -1.03379831408517
H            1.75657259285044        1.33645186062685       -0.57965547374358
H            0.03920364355617        0.90667615094036       -1.04227563614374
C            1.41666889753346       -0.69995519661104       -1.01303536127032
H            0.71179461771003       -1.44977066493468       -1.32714451157074
H            0.83774979810661       -0.95789542033917        1.00888561232143
H            2.42448695589721       -1.00935866298544       -0.79542636220031
O            0.72744198094151       -1.07774118641308        1.95269013136563
H            0.42616500271724       -1.97859349992508        2.09699982967515
10
 energy: -15.126403576959 gnorm: 0.020816119146 xtb: 6.6.1 (unknown)
I            1.43087357917371        1.51235650591665       -3.56345987913403
C            1.09732205782738        0.61550341062649       -1.00746180571471
H            1.79756890313673        1.34870502543377       -0.62212039063333
H            0.06081249668668        0.91238739856751       -1.06996203734363
C            1.44394288059828       -0.67880802399392       -1.07575631619754
H            0.74737879282232       -1.43739198107970       -1.39835394798452
H            0.71119846740308       -0.98243389337660        1.10894029080603
H            2.45035989394824       -0.99282372349087       -0.82597395282848
O            0.73018406471496       -1.13504766900310        2.07089228152818
H            0.40839019468858       -2.02436010160083        2.21662176050186
10
 energy: -15.127319052444 gnorm: 0.019755215885 xtb: 6.6.1 (unknown)
I            1.42187506200505        1.55037357777686       -3.67265459839426
C            1.10744560252829        0.60629473049556       -0.96406841361880
H            1.81022330162150        1.35800560805197       -0.62019130611498
H            0.07456816241095        0.91882904250870       -1.08361036235317
C            1.46528929272226       -0.66618156676620       -1.10646340381183
H            0.77416451535454       -1.42820509605275       -1.44222576311977
H            0.66238019787356       -1.01175659731292        1.19048813704886
H            2.47507318568001       -0.98707515495240       -0.90464678215947
O            0.68229508682913       -1.14954705184610        2.13310950444244
H            0.40471692397469       -2.05265054390331        2.30362899108081
10
 energy: -15.127929974724 gnorm: 0.007352975609 xtb: 6.6.1 (unknown)
I            1.45780497822322        1.55747040387676       -3.73252086048815
C            1.09851637253091        0.60474569431169       -0.94214103073932
H            1.78065306012031        1.35201254440012       -0.58591778613398
H            0.06963840067925        0.90923687860765       -1.05608521775346
C            1.47426937956324       -0.66467105811613       -1.11836052143845
H            0.78513036264590       -1.42728210004671       -1.45633006156828
H            0.64157510263602       -1.02237019596273        1.20557113443562
H            2.49267444444049       -0.98597495511664       -0.97450221894402
O            0.69462092027631       -1.14891462821256        2.15643452071671
H            0.38314830988432       -2.03616563574205        2.33721804491315
10
 energy: -15.128099316069 gnorm: 0.007692103320 xtb: 6.6.1 (unknown)
I            1.47447926464307        1.58921536473521       -3.81596236197026
C            1.09651611760515        0.59680655525397       -0.92702273303055
H            1.78961648281622        1.35012171308828       -0.59365618226259
H            0.07119016222770        0.89998911430536       -1.02490211880786
C            1.48853985479820       -0.65762653566025       -1.14401836523245
H            0.79962812190495       -1.41984699385158       -1.47635094377092
H            0.58887970280397       -1.03474754945239        1.24137490731315
H            2.51079289967082       -0.97414424182627       -1.01443828513618
O            0.67627060438198       -1.15958169453043        2.19323949669971
H            0.38211812014792       -2.05209878406247        2.39510258919779
10
 energy: -15.128169826917 gnorm: 0.006024443012 xtb: 6.6.1 (unknown)
I            1.49644529586620        1.58599825119163       -3.83451831600336
C            1.09123073480107        0.59364526135356       -0.92389202363105
H            1.77988951419515        1.34639500526314       -0.58104961987384
H            0.06296227344441        0.89197664432737       -1.00659632091628
C            1.48324001080291       -0.65804428111167       -1.13573043621108
H            0.79440501056897       -1.41806959440619       -1.46767392210747
H            0.60549095748971       -1.03740308373097        1.23862299767583
H            2.51099820946889       -0.96583929227090       -1.02936387253480
O            0.67731078767569       -1.15592272762242        2.18625801653237
H            0.37605853668699       -2.04464923499415        2.38730950006949
10
 energy: -15.128217926375 gnorm: 0.002157316914 xtb: 6.6.1 (unknown)
I            1.50528676142809        1.59189771550227       -3.85743501511201
C            1.09121106850261        0.58989466964500       -0.91184296625532
H            1.77695497306286        1.34461439901714       -0.56688169792892
H            0.05910815609208        0.88902607317635       -1.00690567356512
C            1.48288171273522       -0.65950422652981       -1.14255272581330
H            0.79457081316838       -1.41916589970858       -1.47637156370353
H            0.59894356898066       -1.04380970784266        1.24288515353193
H            2.51334739095013       -0.96003010092909       -1.04055679641040
O            0.68449246614473       -1.15644020824109        2.19269408888933
H            0.37123441993524       -2.03839576609012        2.40033319936714
10
 energy: -15.128233652348 gnorm: 0.004032438884 xtb: 6.6.1 (unknown)
I            1.51467692108942        1.58678005736109       -3.85385856033133
C            1.08801536081714        0.58947471587286       -0.90977686349875
H            1.77424675202902        1.34236845195443       -0.56054656987803
H            0.05452741129981        0.88666015304697       -0.99658986959345
C            1.47976338940589       -0.66154074763756       -1.14256094962257
H            0.79172332666573       -1.42150434546056       -1.47644923328385
H            0.60258701068957       -1.04235125175826        1.23038587954709
H            2.50981790190205       -0.95910170315611       -1.03605806100384
O            0.68453215599580       -1.14941399598636        2.18090790019545
H            0.37814110110555       -2.03328438623709        2.39791233046908
10
 energy: -15.128249033961 gnorm: 0.002057314999 xtb: 6.6.1 (unknown)
I            1.52348737493393        1.58284985049476       -3.85581854148190
C            1.08442967659143        0.58789075650126       -0.90614892043214
H            1.77083000251805        1.34115302552620       -0.55651260766275
H            0.05085670534524        0.88448453889123       -0.98937754727695
C            1.47712136516505       -0.66082484152743       -1.14106763590138
H            0.79056161331492       -1.42152585462325       -1.47719049885760
H            0.60561346264245       -1.04312423736074        1.22350694100786
H            2.50730317468070       -0.95710306297692       -1.03493259097562
O            0.68960594502583       -1.14744545216411        2.17522817514088
H            0.37822201078239       -2.02826777476160        2.39567922943940
10
 energy: -15.128282482798 gnorm: 0.001535862890 xtb: 6.6.1 (unknown)
I            1.55015716724412        1.56724651398715       -3.85757413309544
C            1.07183748176373        0.58281423925928       -0.88924729165992
H            1.75769851913962        1.33693870598398       -0.53820545169185
H            0.03829964697050        0.87816697305277       -0.96840613558432
C            1.47025407367184       -0.66025498980718       -1.13801051506263
H            0.78694338491504       -1.42232228767298       -1.47967359404351
H            0.62052884311022       -1.04453230349900        1.20105924456320
H            2.50193841973898       -0.95428246246679       -1.03727548598170
O            0.70282738090405       -1.13693490220407        2.15428208391039
H            0.37754641354190       -2.00875253863376        2.38641728164559
10
 energy: -15.128303067874 gnorm: 0.003187263732 xtb: 6.6.1 (unknown)
I            1.60388124389783        1.52828457809802       -3.84251116903015
C            1.04668937960700        0.57306927711742       -0.85411323789960
H            1.72571800915200        1.32540889247079       -0.49057815748917
H            0.01256410707398        0.86633008692764       -0.93793672150049
C            1.45245293804719       -0.66111794033435       -1.12861468690881
H            0.77482580310037       -1.42235481862887       -1.48482166231441
H            0.65878763796917       -1.04588900296062        1.14282104758875
H            2.48568800118651       -0.95260673684995       -1.03470507864990
O            0.73381562867235       -1.10895726725899        2.10058015748874
H            0.38360858229356       -1.96408012058167        2.36324551171483
10
 energy: -15.128314515153 gnorm: 0.000872361454 xtb: 6.6.1 (unknown)
I            1.59261774400312        1.53014319261135       -3.83889060828045