27
 energy: -74.141470127527 gnorm: 0.110853123631 xtb: 6.6.1 (unknown)
Pt           0.00000000000025       -0.00000000000005       -0.00000000000004
Pt           0.00000000000016        0.00000000000001        3.94314943226466
Pt          -0.00000000000028        3.94314943226473        0.00000000000016
Pt          -0.00000000000070        3.94314943226405        3.94314943226458
Pt           3.94314943226503        0.00000000000029       -0.00000000000009
Pt           3.94314943226477        0.00000000000022        3.94314943226504
Pt           3.94314943226490        3.94314943226514        0.00000000000002
Pt           3.94314943226441        3.94314943226557        3.94314943226457
Pt           0.00000000000010        1.97157471613233        1.97157471613230
Pt           3.94314943226476        1.97157471613348        1.97157471613286
Pt           1.97157471613284        0.00000000000055        1.97157471613216
Pt           1.97157471613237        3.94314943226512        1.97157471613224
Pt           1.97157471613267        1.97157471613256       -0.00000000000010
Pt           1.97157471613248        1.97157471613269        3.94314943226494
H           -0.82608983554578        5.07940271045972        6.11705234342955
H           -1.87511570130831       -0.18704186653780        3.51493208493040
H           -0.26330971672432        0.54019756411085       -1.78801600305760
H           -1.48069638844044        2.17613119027724        1.87259069358606
H           -0.47180626788518        0.66063035314802       -2.61892676068793
H           -0.52622977188891        4.65906039004241        5.41351949535036
H           -2.70568355341466       -0.39241555623761        3.44975282624215
C           -3.77346512211597        1.92273419969602        1.61979485436962
C           -3.77346512211064        1.92273419969654        2.94995275861145
H           -3.77346512211827        2.84607513322442        1.04684489561597
H           -3.77346512211827        0.99939326616719        1.04684489561669
H           -3.77346512210834        2.84607513322537        3.52290271736438
H           -3.77346512210834        0.99939326616814        3.52290271736510
27
 energy: -74.145256569797 gnorm: 0.111309542479 xtb: 6.6.1 (unknown)
Pt           0.00000000000025       -0.00000000000005       -0.00000000000004
Pt           0.00000000000016        0.00000000000001        3.94314943226466
Pt          -0.00000000000028        3.94314943226473        0.00000000000016
Pt          -0.00000000000070        3.94314943226405        3.94314943226458
Pt           3.94314943226503        0.00000000000029       -0.00000000000009
Pt           3.94314943226477        0.00000000000023        3.94314943226504
Pt           3.94314943226490        3.94314943226514        0.00000000000002
Pt           3.94314943226441        3.94314943226557        3.94314943226457
Pt           0.00000000000010        1.97157471613233        1.97157471613230
Pt           3.94314943226476        1.97157471613348        1.97157471613286
Pt           1.97157471613284        0.00000000000055        1.97157471613216
Pt           1.97157471613237        3.94314943226512        1.97157471613224
Pt           1.97157471613267        1.97157471613256       -0.00000000000010
Pt           1.97157471613248        1.97157471613269        3.94314943226494
H           -0.83067935182982        5.07406771763883        6.11950420341413
H           -1.81017498928839       -0.27214792148090        3.52445999402797
H           -0.27017176937275        0.53251239678616       -1.78554540526210
H           -1.46252419165829        2.18239082465139        1.85357282929726
H           -0.48203406738115        0.64938546163861       -2.61586067233953
H           -0.53012134762143        4.65361690581586        5.41523111571693
H           -2.62239103370173       -0.55701753107407        3.46897070772393
C           -3.85430068005257        1.94858550066277        1.62097507644132
C           -3.89320010442595        1.97577492617416        2.94101422073618
H           -3.76234034034818        2.85312153330702        1.03554239823168
H           -3.76812146912581        1.02228741540980        1.06739793060886
H           -3.79679570679273        2.89679340261991        3.49770125499271
H           -3.84643194705869        1.07403722517051        3.52640480117782
27
 energy: -74.148175258480 gnorm: 0.110922028086 xtb: 6.6.1 (unknown)
Pt           0.00000000000025       -0.00000000000005       -0.00000000000005
Pt           0.00000000000016        0.00000000000001        3.94314943226466
Pt          -0.00000000000028        3.94314943226473        0.00000000000016
Pt          -0.00000000000069        3.94314943226406        3.94314943226459
Pt           3.94314943226503        0.00000000000030       -0.00000000000009
Pt           3.94314943226477        0.00000000000023        3.94314943226505
Pt           3.94314943226490        3.94314943226514        0.00000000000002
Pt           3.94314943226441        3.94314943226558        3.94314943226457
Pt           0.00000000000010        1.97157471613233        1.97157471613230
Pt           3.94314943226476        1.97157471613348        1.97157471613286
Pt           1.97157471613283        0.00000000000055        1.97157471613216
Pt           1.97157471613236        3.94314943226512        1.97157471613224
Pt           1.97157471613267        1.97157471613255       -0.00000000000010
Pt           1.97157471613248        1.97157471613270        3.94314943226494
H           -0.83731710174491        5.06517762274488        6.12244455768701
H           -1.75078879330203       -0.35244773589336        3.53794462203868
H           -0.27955574299300        0.52166246565500       -1.78197672082002
H           -1.45747069749669        2.17311625907251        1.83983428258589
H           -0.49633047473586        0.63390128495849       -2.61167109511577
H           -0.53534415435178        4.64580009010639        5.41775446207681
H           -2.54959381104871       -0.70936711715787        3.49167360077564
C           -3.81147892073932        1.97617642919244        1.61950223669846
C           -3.89519686019381        2.02307127532673        2.93246958919367
H           -3.78999451255829        2.86526574517101        1.02604572051863
H           -3.82190199760612        1.04923754148669        1.08222807430061
H           -3.87892742083585        2.94236609457805        3.47441005064722
H           -3.95843745691010        1.13627449911519        3.52701484626113
27
 energy: -74.149082457363 gnorm: 0.109544923226 xtb: 6.6.1 (unknown)
Pt           0.00000000000025       -0.00000000000005       -0.00000000000005
Pt           0.00000000000015        0.00000000000001        3.94314943226466
Pt          -0.00000000000028        3.94314943226473        0.00000000000016
Pt          -0.00000000000069        3.94314943226406        3.94314943226459
Pt           3.94314943226504        0.00000000000030       -0.00000000000009
Pt           3.94314943226477        0.00000000000024        3.94314943226505
Pt           3.94314943226490        3.94314943226514        0.00000000000002
Pt           3.94314943226441        3.94314943226558        3.94314943226457
Pt           0.00000000000010        1.97157471613233        1.97157471613230
Pt           3.94314943226476        1.97157471613348        1.97157471613286
Pt           1.97157471613283        0.00000000000055        1.97157471613216
Pt           1.97157471613236        3.94314943226512        1.97157471613224
Pt           1.97157471613267        1.97157471613255       -0.00000000000010
Pt           1.97157471613248        1.97157471613270        3.94314943226494
H           -0.84569517353598        5.05056143150872        6.12672385365318
H           -1.71991128811013       -0.42408159886870        3.54989260651515
H           -0.29125755571578        0.50987990800827       -1.77809563507651
H           -1.46679289949414        2.15203126803958        1.82687306153597
H           -0.51390106731762        0.61687240524818       -2.60764481043990
H           -0.54181461759791        4.63476916709747        5.42144710361815
H           -2.51705690507209       -0.76608218557339        3.51270374727816
C           -3.83012669526973        1.99248822441267        1.61546776839300
C           -3.92564679110884        2.04515332302270        2.93024356408606
H           -3.76965327804121        2.88196550072400        1.01549069812146
H           -3.84337440190729        1.06047267435824        1.08248492905404
H           -3.92548635305708        2.97412252182727        3.46606366893862
H           -4.00562594460312        1.15707377209500        3.52975303814869
27
 energy: -74.149969120578 gnorm: 0.108770077062 xtb: 6.6.1 (unknown)
Pt           0.00000000000025       -0.00000000000004       -0.00000000000005
Pt           0.00000000000015        0.00000000000001        3.94314943226466
Pt          -0.00000000000028        3.94314943226473        0.00000000000016
Pt          -0.00000000000069        3.94314943226406        3.94314943226459
Pt           3.94314943226504        0.00000000000030       -0.00000000000009
Pt           3.94314943226477        0.00000000000024        3.94314943226505
Pt           3.94314943226490        3.94314943226514        0.00000000000002
Pt           3.94314943226441        3.94314943226558        3.94314943226457
Pt           0.00000000000010        1.97157471613233        1.97157471613230
Pt           3.94314943226476        1.97157471613348        1.97157471613286
Pt           1.97157471613283        0.00000000000055        1.97157471613216
Pt           1.97157471613237        3.94314943226512        1.97157471613224
Pt           1.97157471613267        1.97157471613255       -0.00000000000010
Pt           1.97157471613248        1.97157471613270        3.94314943226494
H           -0.86435482752642        5.01933614849436        6.13641125348524
H           -1.67788396806749       -0.50372413448065        3.58166171599086
H           -0.31556021216825        0.48362852486449       -1.76856800257592
H           -1.47934129953181        2.09894027778480        1.81486448959831
H           -0.55084679302065        0.57991394359718       -2.59731756689267
H           -0.55498342800562        4.61205576112705        5.42916195907035
H           -2.46364585106015       -0.90484269356226        3.55084423381048
C           -3.86331819085197        2.02697429850051        1.60772334300016
C           -3.99589781829071        2.08247581324195        2.92246034465138
H           -3.75578500395125        2.91705511052002        1.00463045374181
H           -3.86494259903135        1.09068266353354        1.07666274358872
H           -3.99356362469851        3.02199882232133        3.45226918628867
H           -4.08971820024235        1.19223843297796        3.52338063293771
27
 energy: -74.150657439908 gnorm: 0.108498871116 xtb: 6.6.1 (unknown)
Pt           0.00000000000025       -0.00000000000004       -0.00000000000006
Pt           0.00000000000015        0.00000000000001        3.94314943226466
Pt          -0.00000000000028        3.94314943226473        0.00000000000016
Pt          -0.00000000000068        3.94314943226406        3.94314943226459
Pt           3.94314943226504        0.00000000000030       -0.00000000000009
Pt           3.94314943226477        0.00000000000024        3.94314943226505
Pt           3.94314943226490        3.94314943226514        0.00000000000002
Pt           3.94314943226441        3.94314943226558        3.94314943226457
Pt           0.00000000000010        1.97157471613233        1.97157471613230
Pt           3.94314943226476        1.97157471613349        1.97157471613286
Pt           1.97157471613283        0.00000000000055        1.97157471613217
Pt           1.97157471613236        3.94314943226512        1.97157471613224
Pt           1.97157471613267        1.97157471613255       -0.00000000000010
Pt           1.97157471613248        1.97157471613271        3.94314943226494
H           -0.89012023517724        4.98154552269295        6.14724302428193
H           -1.62608863065961       -0.63327527178015        3.61623792242661
H           -0.34395158821401        0.44899273806582       -1.75560884431690
H           -1.48594916926258        2.03876429225124        1.81659165411469
H           -0.59410630624787        0.53207384121056       -2.58302869947140
H           -0.57266825975647        4.58529329814075        5.43735787281316
H           -2.40723668083375       -1.00665837790058        3.59826359963475
C           -3.89578702724130        2.06972869502729        1.59777649464631
C           -4.06433059021613        2.12184090345400        2.90769952221849
H           -3.76947536931437        2.95926019978793        1.00071039694101
H           -3.87889346261614        1.13422643794686        1.06386370655628
H           -4.06487520825304        3.06290805645186        3.43716642403337
H           -4.17300916677958        1.23007402897004        3.50332407943617
27
 energy: -74.151288562124 gnorm: 0.108393284532 xtb: 6.6.1 (unknown)
Pt           0.00000000000025       -0.00000000000004       -0.00000000000006
Pt           0.00000000000014        0.00000000000001        3.94314943226466
Pt          -0.00000000000028        3.94314943226473        0.00000000000016
Pt          -0.00000000000068        3.94314943226406        3.94314943226460
Pt           3.94314943226504        0.00000000000030       -0.00000000000009
Pt           3.94314943226478        0.00000000000025        3.94314943226505
Pt           3.94314943226490        3.94314943226513        0.00000000000002
Pt           3.94314943226441        3.94314943226558        3.94314943226457
Pt           0.00000000000010        1.97157471613233        1.97157471613230
Pt           3.94314943226476        1.97157471613349        1.97157471613286
Pt           1.97157471613283        0.00000000000055        1.97157471613217
Pt           1.97157471613236        3.94314943226513        1.97157471613224
Pt           1.97157471613267        1.97157471613255       -0.00000000000010
Pt           1.97157471613248        1.97157471613271        3.94314943226494
H           -0.92131258250318        4.93555310011666        6.15926228531542
H           -1.58055718093155       -0.73201466691055        3.65460810695825
H           -0.37761171004099        0.40718407047181       -1.73883421647886
H           -1.48785738946403        1.98476293381940        1.83601013447915
H           -0.64454107595540        0.47426707627258       -2.56429426882849
H           -0.59344079598397        4.55376223186958        5.44625867719613
H           -2.34391530002973       -1.15810296138676        3.65355276304735
C           -3.92928171365424        2.11853042100769        1.58500987730278
C           -4.12561036574839        2.16446920764905        2.88818170330375
H           -3.78419988408404        3.00897795680826        0.99818092095947
H           -3.89589783235330        1.18633134804237        1.04591229459510
H           -4.14800565887932        3.10093354818257        3.42213958102549
H           -4.25932479359733        1.27154402702548        3.47634832713551
27
 energy: -74.151790344990 gnorm: 0.108832130575 xtb: 6.6.1 (unknown)
Pt           0.00000000000025       -0.00000000000004       -0.00000000000007
Pt           0.00000000000014        0.00000000000001        3.94314943226466
Pt          -0.00000000000028        3.94314943226473        0.00000000000016
Pt          -0.00000000000067        3.94314943226406        3.94314943226460
Pt           3.94314943226504        0.00000000000030       -0.00000000000009
Pt           3.94314943226478        0.00000000000026        3.94314943226505
Pt           3.94314943226490        3.94314943226513        0.00000000000002
Pt           3.94314943226441        3.94314943226558        3.94314943226457
Pt           0.00000000000009        1.97157471613233        1.97157471613230
Pt           3.94314943226476        1.97157471613349        1.97157471613286
Pt           1.97157471613283        0.00000000000055        1.97157471613217
Pt           1.97157471613237        3.94314943226513        1.97157471613224
Pt           1.97157471613267        1.97157471613255       -0.00000000000011
Pt           1.97157471613248        1.97157471613272        3.94314943226495
H           -0.96157152550093        4.87349279732109        6.17362428026526
H           -1.52926571186425       -0.84504502119821        3.70470711957554
H           -0.42183964272836        0.35334704544586       -1.71622489635830
H           -1.48798172457610        1.93196841047342        1.87745960897993
H           -0.70981430196684        0.39899135546931       -2.53833163633935
H           -0.62022207974824        4.51179156806994        5.45672536982923
H           -2.26639236596603       -1.32517752223968        3.71836133894297
C           -3.94950998275914        2.17563857309423        1.56695202594138
C           -4.20546413153884        2.21098657269633        2.86415165951763
H           -3.78962624212495        3.07039627667847        0.99454547981146
H           -3.91195193454435        1.24941149064533        1.02030849019874
H           -4.24235063460778        3.13860585303027        3.40765433785452
H           -4.35688033386433        1.31580162832204        3.44044050096048
27
 energy: -74.152204091451 gnorm: 0.108525675723 xtb: 6.6.1 (unknown)
Pt           0.00000000000025       -0.00000000000004       -0.00000000000008
Pt           0.00000000000013        0.00000000000002        3.94314943226466
Pt          -0.00000000000028        3.94314943226473        0.00000000000016
Pt          -0.00000000000066        3.94314943226406        3.94314943226461
Pt           3.94314943226504        0.00000000000031       -0.00000000000009
Pt           3.94314943226478        0.00000000000027        3.94314943226505
Pt           3.94314943226490        3.94314943226513        0.00000000000002
Pt           3.94314943226441        3.94314943226558        3.94314943226457
Pt           0.00000000000009        1.97157471613233        1.97157471613230
Pt           3.94314943226476        1.97157471613350        1.97157471613286
Pt           1.97157471613283        0.00000000000055        1.97157471613217
Pt           1.97157471613236        3.94314943226513        1.97157471613224
Pt           1.97157471613267        1.97157471613255       -0.00000000000011
Pt           1.97157471613248        1.97157471613273        3.94314943226495
H           -1.00455332942298        4.80738162550934        6.18611284911845
H           -1.47908741083864       -0.95532895067314        3.75705260257465
H           -0.46722559762564        0.29727025721857       -1.69335082384545
H           -1.48796654560338        1.88816764995823        1.92859804523353
H           -0.77611769488882        0.31999997767418       -2.51085436624013
H           -0.64895590925010        4.46726538026507        5.46572489441970
H           -2.19174375345395       -1.46265588425188        3.77727680418187
C           -3.97948955270518        2.23042554251148        1.54886166037220
C           -4.26107768418982        2.25073138222733        2.83608063191624
H           -3.79092863554745        3.13323904695027        0.99399992142566
H           -3.92617985720718        1.31180152541069        0.99217922072852
H           -4.31738589701428        3.16815314331943        3.39263886302426
H           -4.44569834658219        1.34964275754894        3.39622141768176
27
 energy: -74.152539150988 gnorm: 0.108331394593 xtb: 6.6.1 (unknown)
Pt           0.00000000000025       -0.00000000000003       -0.00000000000009
Pt           0.00000000000012        0.00000000000002        3.94314943226466
Pt          -0.00000000000028        3.94314943226473        0.00000000000016
Pt          -0.00000000000065        3.94314943226406        3.94314943226462
Pt           3.94314943226504        0.00000000000031       -0.00000000000009
Pt           3.94314943226478        0.00000000000028        3.94314943226505
Pt           3.94314943226490        3.94314943226512        0.00000000000002
Pt           3.94314943226440        3.94314943226559        3.94314943226457
Pt           0.00000000000009        1.97157471613233        1.97157471613230
Pt           3.94314943226476        1.97157471613351        1.97157471613286
Pt           1.97157471613283        0.00000000000055        1.97157471613218
Pt           1.97157471613236        3.94314943226513        1.97157471613225
Pt           1.97157471613267        1.97157471613254       -0.00000000000011
Pt           1.97157471613248        1.97157471613274        3.94314943226495
H           -1.04916942990784        4.73397748065039        6.19664186164365
H           -1.42123227937926       -1.05283866207216        3.80599583503414
H           -0.51843031575935        0.23696594630216       -1.67127164845942
H           -1.48839834360126        1.85429690818377        1.98708117488570
H           -0.84779564681430        0.23553053792935       -2.48197280182297
H           -0.67886520468306        4.41735055350019        5.47354589170108
H           -2.10831605027233       -1.58440386840633        3.84038370298090
C           -3.99191941597779        2.28632631290774        1.52844446093965
C           -4.32143860582474        2.28641046467468        2.80670062308089
H           -3.78203562092333        3.19854130281814        0.99596857797870
H           -3.92574151688563        1.37712664448696        0.95773987566448
H           -4.38824221248354        3.19363682970022        3.37979160273068
H           -4.52984189305162        1.37623364638412        3.34450346362163
27
 energy: -74.152901462525 gnorm: 0.108903173316 xtb: 6.6.1 (unknown)
Pt           0.00000000000025       -0.00000000000003       -0.00000000000010
Pt           0.00000000000010        0.00000000000002        3.94314943226466
Pt          -0.00000000000027        3.94314943226472        0.00000000000015
Pt          -0.00000000000064        3.94314943226407        3.94314943226463
Pt           3.94314943226504        0.00000000000032       -0.00000000000009
Pt           3.94314943226478        0.00000000000030        3.94314943226506
Pt           3.94314943226490        3.94314943226511        0.00000000000001
Pt           3.94314943226440        3.94314943226559        3.94314943226457
Pt           0.00000000000009        1.97157471613233        1.97157471613230
Pt           3.94314943226476        1.97157471613352        1.97157471613286
Pt           1.97157471613282        0.00000000000055        1.97157471613218
Pt           1.97157471613236        3.94314943226513        1.97157471613225
Pt           1.97157471613266        1.97157471613254       -0.00000000000011
Pt           1.97157471613248        1.97157471613276        3.94314943226495
H           -1.09870001629336        4.64840558503886        6.20286984665482
H           -1.35582647611447       -1.11436290041497        3.85031772873360
H           -0.57579927332317        0.17040024284691       -1.65056953195473
H           -1.48174377221122        1.85818637564000        2.05386390021797
H           -0.92643833069301        0.14168808675186       -2.45068959935244
H           -0.71107190758857        4.35945142521406        5.47822625969400
H           -2.00881807559881       -1.68628525072933        3.90818866216417
C           -3.99529256086484        2.34278928781947        1.50454410022942
C           -4.36366033858934        2.31310096590748        2.77026180859089
H           -3.76408314874506        3.26806195681678        1.00353321945536
H           -3.91562395210619        1.44740686157757        0.91356021591546
H           -4.43954037999726        3.20674764633910        3.36628203545934
H           -4.59159740801133        1.38932342224057        3.27507428485218
27
 energy: -74.153203347585 gnorm: 0.108271744768 xtb: 6.6.1 (unknown)
Pt           0.00000000000025       -0.00000000000002       -0.00000000000012
Pt           0.00000000000008        0.00000000000002        3.94314943226466
Pt          -0.00000000000027        3.94314943226472        0.00000000000015
Pt          -0.00000000000062        3.94314943226408        3.94314943226464
Pt           3.94314943226505        0.00000000000033       -0.00000000000009
Pt           3.94314943226478        0.00000000000032        3.94314943226506
Pt           3.94314943226491        3.94314943226510        0.00000000000001
Pt           3.94314943226439        3.94314943226560        3.94314943226456
Pt           0.00000000000009        1.97157471613233        1.97157471613230
Pt           3.94314943226476        1.97157471613353        1.97157471613286
Pt           1.97157471613282        0.00000000000055        1.97157471613219
Pt           1.97157471613236        3.94314943226513        1.97157471613225
Pt           1.97157471613266        1.97157471613254       -0.00000000000012
Pt           1.97157471613248        1.97157471613278        3.94314943226495
H           -1.15096281417657        4.55248848684072        6.20599621230219
H           -1.28348052147692       -1.16639130630624        3.89475769844234
H           -0.63652632075056        0.10179193001869       -1.63142029005954
H           -1.48429945996030        1.85148386926705        2.12829912284521
H           -1.01675588625762        0.03791900083298       -2.41797438896115
H           -0.74100028132895        4.29640796796432        5.47982493522489
H           -1.89966943522789       -1.77896481599095        3.98371480560175
C           -3.98184781624257        2.40348515954873        1.47752626354366
C           -4.39617397498438        2.33582378394295        2.72935537509760
H           -3.72416539504688        3.34296362394671        1.01407800703286
H           -3.88858679184806        1.52601939138188        0.86085704721115
H           -4.48279247959759        3.21235104924039        3.35157068467489
H           -4.65039524477595        1.39581590464665        3.19520700890570
27
 energy: -74.153414382314 gnorm: 0.109173213489 xtb: 6.6.1 (unknown)
Pt           0.00000000000025       -0.00000000000002       -0.00000000000013
Pt           0.00000000000006        0.00000000000002        3.94314943226466
Pt          -0.00000000000027        3.94314943226472        0.00000000000015
Pt          -0.00000000000060        3.94314943226408        3.94314943226465
Pt           3.94314943226505        0.00000000000034       -0.00000000000010
Pt           3.94314943226478        0.00000000000035        3.94314943226507
Pt           3.94314943226491        3.94314943226509        0.00000000000001
Pt           3.94314943226438        3.94314943226560        3.94314943226456
Pt           0.00000000000008        1.97157471613233        1.97157471613230
Pt           3.94314943226476        1.97157471613354        1.97157471613286
Pt           1.97157471613281        0.00000000000055        1.97157471613220
Pt           1.97157471613236        3.94314943226513        1.97157471613226
Pt           1.97157471613266        1.97157471613253       -0.00000000000012
Pt           1.97157471613248        1.97157471613281        3.94314943226495
H           -1.18810802658375        4.46804119173127        6.19953359762806
H           -1.22468007325146       -1.18778199528520        3.92928160373070
H           -0.69458624487128        0.04230944698730       -1.61750471474294
H           -1.47775269159109        1.89511139657919        2.16704355222624
H           -1.08769740509766       -0.04374825124062       -2.38729158432165
H           -0.76477035198908        4.23693570631339        5.47509471889178
H           -1.81350349921597       -1.80672495871969        4.04535344079442
C           -3.94520383901557        2.44649039862240        1.45382182676220
C           -4.38897195878398        2.33902329829675        2.69141136975800
H           -3.67528616883452        3.39811383977742        1.02950799366570
H           -3.84282996134377        1.58933075895242        0.81013896498929
H           -4.48703281644563        3.19640435641055        3.33918569366335
H           -4.65394110307447        1.38466786351534        3.11694708932363
27
 energy: -74.153659326012 gnorm: 0.109501796688 xtb: 6.6.1 (unknown)
Pt           0.00000000000026       -0.00000000000002       -0.00000000000015
Pt           0.00000000000004        0.00000000000003        3.94314943226465
Pt          -0.00000000000027        3.94314943226472        0.00000000000015
Pt          -0.00000000000058        3.94314943226409        3.94314943226466
Pt           3.94314943226506        0.00000000000035       -0.00000000000010
Pt           3.94314943226479        0.00000000000038        3.94314943226507
Pt           3.94314943226491        3.94314943226508        0.00000000000000
Pt           3.94314943226438        3.94314943226561        3.94314943226456
Pt           0.00000000000008        1.97157471613233        1.97157471613230
Pt           3.94314943226476        1.97157471613356        1.97157471613286
Pt           1.97157471613281        0.00000000000055        1.97157471613221
Pt           1.97157471613236        3.94314943226514        1.97157471613226
Pt           1.97157471613266        1.97157471613252       -0.00000000000013
Pt           1.97157471613248        1.97157471613284        3.94314943226495
H           -1.22782308401645        4.38304030443571        6.19960544641362
H           -1.16940335714636       -1.25912831979741        3.97081177728623
H           -0.74686035266593       -0.01520870059733       -1.59594961510346
H           -1.47122228097256        1.91348097134821        2.18143645536067
H           -1.16887896644223       -0.13404116413322       -2.35124646616522
H           -0.78804389305025        4.17868606352018        5.47447969903393