21
 energy: -67.569783555570 gnorm: 0.134045033945 xtb: 6.6.1 (unknown)
Pt           0.00000000000000        0.00000000000000        0.00000000000000
Pt           0.00000000000000        0.00000000000000        3.94314971613235
Pt           0.00000000000000        3.94314971613235        0.00000000000000
Pt           0.00000000000000        3.94314971613235        3.94314971613235
Pt           3.94314971613235        0.00000000000000        0.00000000000000
Pt           3.94314971613235        0.00000000000000        3.94314971613235
Pt           3.94314971613235        3.94314971613235        0.00000000000000
Pt           3.94314971613235        3.94314971613235        3.94314971613235
Pt           0.00000000000000        1.97157485806618        1.97157485806618
Pt           3.94314971613235        1.97157485806618        1.97157485806618
Pt           1.97157485806618        0.00000000000000        1.97157485806618
Pt           1.97157485806618        3.94314971613235        1.97157485806618
Pt           1.97157485806618        1.97157485806618        0.00000000000000
Pt           1.97157485806618        1.97157485806618        3.94314971613235
H           -3.39401350515586        3.95865961727771        2.21188420414464
H           -3.35513905394416        1.28838362285033        2.27720036739748
H           -1.57197649353542        2.11186746464653        0.92116229192113
H           -2.32714335247101        1.91245234184218        4.04248609843422
H           -2.63270078281860        2.28794062129935        0.04411439126505
H           -1.44735334573855        3.76683946517418        3.28473855126567
H           -2.10419055187610       -0.27366132109775        1.97581495527373
21
 energy: -67.632271338482 gnorm: 0.132371641880 xtb: 6.6.1 (unknown)
Pt           0.00000000000000        0.00000000000000       -0.00000000000000
Pt           0.00000000000000        0.00000000000000        3.94314971613235
Pt          -0.00000000000000        3.94314971613235       -0.00000000000000
Pt          -0.00000000000000        3.94314971613235        3.94314971613236
Pt           3.94314971613235        0.00000000000000       -0.00000000000000
Pt           3.94314971613235       -0.00000000000000        3.94314971613235
Pt           3.94314971613235        3.94314971613236        0.00000000000000
Pt           3.94314971613235        3.94314971613235        3.94314971613235
Pt          -0.00000000000000        1.97157485806618        1.97157485806617
Pt           3.94314971613235        1.97157485806618        1.97157485806618
Pt           1.97157485806618        0.00000000000000        1.97157485806618
Pt           1.97157485806618        3.94314971613235        1.97157485806617
Pt           1.97157485806618        1.97157485806617       -0.00000000000000
Pt           1.97157485806618        1.97157485806617        3.94314971613236
H           -3.34235464431684        3.94143527503402        2.20745743124353
H           -3.17286605883986        1.17903673684354        2.34303815272196
H           -1.66898951207976        2.14465689840899        0.78806832172630
H           -2.32509025586165        1.90449760184950        3.93544626631922
H           -2.39358333243697        2.25234282082400        0.21815621496217
H           -1.40983396361548        3.78810949356102        3.30320229877875
H           -2.14243178610455       -0.14221944979002        1.98160279987133
21
 energy: -67.614073018761 gnorm: 0.550673111864 xtb: 6.6.1 (unknown)
Pt           0.00000000000000        0.00000000000000       -0.00000000000001
Pt          -0.00000000000000        0.00000000000000        3.94314971613234
Pt          -0.00000000000000        3.94314971613236       -0.00000000000000
Pt           0.00000000000000        3.94314971613235        3.94314971613236
Pt           3.94314971613236        0.00000000000001       -0.00000000000000
Pt           3.94314971613235       -0.00000000000000        3.94314971613235
Pt           3.94314971613236        3.94314971613236        0.00000000000001
Pt           3.94314971613234        3.94314971613236        3.94314971613235
Pt          -0.00000000000000        1.97157485806618        1.97157485806617
Pt           3.94314971613236        1.97157485806618        1.97157485806619
Pt           1.97157485806617        0.00000000000000        1.97157485806617
Pt           1.97157485806617        3.94314971613235        1.97157485806616
Pt           1.97157485806619        1.97157485806617       -0.00000000000001
Pt           1.97157485806618        1.97157485806617        3.94314971613236
H           -3.28628519132224        3.92774341704209        2.20757914065282
H           -2.91399391878809        0.98579517530427        2.41741176501236
H           -1.81643899045195        2.17327138723275        0.64153602692370
H           -2.33911918343630        1.89443393977064        3.80467818358286
H           -2.22907019200026        2.22104249352031        0.32759801111026
H           -1.35689304006334        3.81041196921010        3.32512332177407
H           -2.25756030004974        0.05631652672562        1.99795160422036
21
 energy: -67.696127003189 gnorm: 0.136782695690 xtb: 6.6.1 (unknown)
Pt           0.00000000000000        0.00000000000000       -0.00000000000001
Pt          -0.00000000000000        0.00000000000000        3.94314971613234
Pt          -0.00000000000000        3.94314971613236       -0.00000000000000
Pt           0.00000000000000        3.94314971613235        3.94314971613236
Pt           3.94314971613236        0.00000000000001       -0.00000000000000
Pt           3.94314971613234       -0.00000000000000        3.94314971613235
Pt           3.94314971613236        3.94314971613237        0.00000000000001
Pt           3.94314971613234        3.94314971613236        3.94314971613235
Pt          -0.00000000000000        1.97157485806618        1.97157485806617
Pt           3.94314971613236        1.97157485806618        1.97157485806619
Pt           1.97157485806617        0.00000000000000        1.97157485806617
Pt           1.97157485806617        3.94314971613235        1.97157485806616
Pt           1.97157485806619        1.97157485806617       -0.00000000000001
Pt           1.97157485806618        1.97157485806617        3.94314971613236
H           -3.27114175121884        3.92207432874880        2.20731924837130
H           -2.86015726051218        0.94832740682786        2.42606339656772
H           -1.69494275931981        2.16454622768232        0.71976798542501
H           -2.33692188283425        1.89284845052411        3.77604247493987
H           -2.34301773259187        2.23122895488958        0.24025884674298
H           -1.34257196448189        3.81654417927809        3.33269737593348
H           -2.27413670698193        0.09955493589116        2.00320728832493
21
 energy: -67.655041380755 gnorm: 0.497187564668 xtb: 6.6.1 (unknown)
Pt           0.00000000000000        0.00000000000001       -0.00000000000001
Pt          -0.00000000000000        0.00000000000000        3.94314971613234
Pt          -0.00000000000001        3.94314971613236       -0.00000000000000
Pt           0.00000000000000        3.94314971613235        3.94314971613236
Pt           3.94314971613236        0.00000000000001       -0.00000000000000
Pt           3.94314971613234       -0.00000000000000        3.94314971613235
Pt           3.94314971613236        3.94314971613237        0.00000000000001
Pt           3.94314971613234        3.94314971613236        3.94314971613235
Pt          -0.00000000000000        1.97157485806618        1.97157485806617
Pt           3.94314971613236        1.97157485806618        1.97157485806619
Pt           1.97157485806617        0.00000000000000        1.97157485806617
Pt           1.97157485806617        3.94314971613235        1.97157485806616
Pt           1.97157485806620        1.97157485806617       -0.00000000000001
Pt           1.97157485806618        1.97157485806617        3.94314971613236
H           -3.21672683069424        3.89416655524889        2.23291329184312
H           -2.64935760973801        0.72059242851450        2.35138818022177
H           -1.66289493484869        2.18523073437215        0.70277446222829
H           -2.30090146648591        1.90531627937434        3.71133690671919
H           -2.34353305525552        2.23080236589203        0.24972153153487
H           -1.33152741416128        3.83125699518602        3.34955563196022
H           -2.42277751200047        0.31951075640154        2.08758483403107
21
 energy: -67.717595234706 gnorm: 0.121624532574 xtb: 6.6.1 (unknown)
Pt           0.00000000000000        0.00000000000001       -0.00000000000001
Pt          -0.00000000000000        0.00000000000000        3.94314971613234
Pt          -0.00000000000001        3.94314971613236       -0.00000000000000
Pt           0.00000000000000        3.94314971613235        3.94314971613237
Pt           3.94314971613236        0.00000000000001       -0.00000000000000
Pt           3.94314971613234       -0.00000000000000        3.94314971613235
Pt           3.94314971613236        3.94314971613237        0.00000000000001
Pt           3.94314971613234        3.94314971613236        3.94314971613235
Pt          -0.00000000000000        1.97157485806618        1.97157485806617
Pt           3.94314971613236        1.97157485806618        1.97157485806620
Pt           1.97157485806617        0.00000000000000        1.97157485806617
Pt           1.97157485806617        3.94314971613235        1.97157485806616
Pt           1.97157485806620        1.97157485806616       -0.00000000000001
Pt           1.97157485806618        1.97157485806617        3.94314971613236
H           -3.20632213676718        3.88801849139904        2.22673559078489
H           -2.71711608865634        0.85516301323094        2.45863257889999
H           -1.66843208480755        2.18059467198127        0.69464974775466
H           -2.29236957021801        1.92278512501672        3.69980460159571
H           -2.34890238824245        2.21917614003196        0.23912904117809
H           -1.34914873125858        3.83787571773971        3.33233666269325
H           -2.35557602800344        0.16860708654367        1.98550135544837
21
 energy: -67.728702387309 gnorm: 0.121566032565 xtb: 6.6.1 (unknown)
Pt           0.00000000000000        0.00000000000001       -0.00000000000001
Pt          -0.00000000000000        0.00000000000000        3.94314971613234
Pt          -0.00000000000001        3.94314971613236       -0.00000000000000
Pt           0.00000000000000        3.94314971613235        3.94314971613237
Pt           3.94314971613236        0.00000000000001       -0.00000000000000
Pt           3.94314971613234       -0.00000000000000        3.94314971613235
Pt           3.94314971613236        3.94314971613237        0.00000000000002
Pt           3.94314971613233        3.94314971613236        3.94314971613235
Pt          -0.00000000000001        1.97157485806618        1.97157485806616
Pt           3.94314971613236        1.97157485806619        1.97157485806620
Pt           1.97157485806617        0.00000000000000        1.97157485806617
Pt           1.97157485806617        3.94314971613235        1.97157485806616
Pt           1.97157485806620        1.97157485806616       -0.00000000000001
Pt           1.97157485806618        1.97157485806617        3.94314971613237
H           -3.06951836480440        3.81855793000518        2.30106457158962
H           -2.63888483227740        0.78492297717576        2.49273840539001
H           -1.69202730149331        2.19892779288537        0.64155416025079
H           -2.14635737201684        2.02109388377509        3.56344646198390
H           -2.39362855148129        2.19289625722283        0.19719563140181
H           -1.36220762256935        3.88674853366474        3.31386013403083
H           -2.46084345576345        0.09894513802068        1.90874935705193
21
 energy: -67.748649711284 gnorm: 0.120215091163 xtb: 6.6.1 (unknown)
Pt           0.00000000000000        0.00000000000001       -0.00000000000001
Pt          -0.00000000000000        0.00000000000000        3.94314971613233
Pt          -0.00000000000001        3.94314971613236       -0.00000000000000
Pt           0.00000000000001        3.94314971613235        3.94314971613237
Pt           3.94314971613236        0.00000000000001       -0.00000000000000
Pt           3.94314971613234       -0.00000000000000        3.94314971613235
Pt           3.94314971613236        3.94314971613238        0.00000000000002
Pt           3.94314971613233        3.94314971613236        3.94314971613235
Pt          -0.00000000000001        1.97157485806618        1.97157485806616
Pt           3.94314971613236        1.97157485806619        1.97157485806621
Pt           1.97157485806617        0.00000000000000        1.97157485806617
Pt           1.97157485806617        3.94314971613235        1.97157485806615
Pt           1.97157485806621        1.97157485806616       -0.00000000000002
Pt           1.97157485806618        1.97157485806617        3.94314971613237
H           -2.85689448892347        3.71883018330979        2.44726400025145
H           -2.59633141231196        0.69722951193847        2.47791798572537
H           -1.74982884931083        2.22859317701329        0.56655749676451
H           -1.94249109031943        2.12590497296915        3.33677304710989
H           -2.47365246329636        2.16866530300997        0.12299029993934
H           -1.39419421799643        3.96565859106923        3.27895473310631
H           -2.55102485787206        0.02623183651286        1.88516797508743
21
 energy: -67.773785478207 gnorm: 0.121176206126 xtb: 6.6.1 (unknown)
Pt           0.00000000000000        0.00000000000001       -0.00000000000001
Pt          -0.00000000000000        0.00000000000000        3.94314971613233
Pt          -0.00000000000001        3.94314971613236       -0.00000000000001
Pt           0.00000000000001        3.94314971613235        3.94314971613238
Pt           3.94314971613236        0.00000000000002       -0.00000000000000
Pt           3.94314971613234       -0.00000000000000        3.94314971613235
Pt           3.94314971613236        3.94314971613238        0.00000000000002
Pt           3.94314971613233        3.94314971613236        3.94314971613235
Pt          -0.00000000000001        1.97157485806618        1.97157485806616
Pt           3.94314971613236        1.97157485806619        1.97157485806621
Pt           1.97157485806617        0.00000000000000        1.97157485806617
Pt           1.97157485806617        3.94314971613234        1.97157485806615
Pt           1.97157485806622        1.97157485806616       -0.00000000000002
Pt           1.97157485806618        1.97157485806617        3.94314971613237
H           -2.65448062011949        3.62058132651129        2.58798526546365
H           -2.57075126875809        0.61549938104047        2.47048958944152
H           -1.79905270208153        2.24816584941811        0.49708848788089
H           -1.73130704764842        2.20188865375839        3.08372390420511
H           -2.54472544012155        2.14155080138291        0.05692145479481
H           -1.40151274249246        4.06677070656961        3.24824652736021
H           -2.62873310631667       -0.03482697837916        1.86550703980713
21
 energy: -67.802171998795 gnorm: 0.117159909385 xtb: 6.6.1 (unknown)
Pt           0.00000000000000        0.00000000000001       -0.00000000000001
Pt          -0.00000000000000        0.00000000000000        3.94314971613233
Pt          -0.00000000000001        3.94314971613236       -0.00000000000001
Pt           0.00000000000002        3.94314971613235        3.94314971613238
Pt           3.94314971613236        0.00000000000002       -0.00000000000000
Pt           3.94314971613234       -0.00000000000000        3.94314971613235
Pt           3.94314971613236        3.94314971613238        0.00000000000003
Pt           3.94314971613233        3.94314971613236        3.94314971613235
Pt          -0.00000000000001        1.97157485806618        1.97157485806616
Pt           3.94314971613236        1.97157485806619        1.97157485806621
Pt           1.97157485806617        0.00000000000000        1.97157485806617
Pt           1.97157485806617        3.94314971613234        1.97157485806615
Pt           1.97157485806622        1.97157485806616       -0.00000000000002
Pt           1.97157485806618        1.97157485806617        3.94314971613237
H           -2.45521522492814        3.54141362118008        2.70098278919472
H           -2.56984621603176        0.53509048533096        2.47220570201655
H           -1.84744281991454        2.23754461870188        0.44625250855587
H           -1.50708441252159        2.25338146601759        2.81132332803334
H           -2.59510752773461        2.14169541130975        0.00355839459858
H           -1.42478522090303        4.16695036908261        3.23683095955699
H           -2.67919929477720       -0.07933456317093        1.86685385020579
21
 energy: -67.811574182888 gnorm: 0.184381853556 xtb: 6.6.1 (unknown)
Pt           0.00000000000000        0.00000000000001       -0.00000000000001
Pt           0.00000000000000        0.00000000000000        3.94314971613233
Pt          -0.00000000000001        3.94314971613236       -0.00000000000001
Pt           0.00000000000002        3.94314971613235        3.94314971613237
Pt           3.94314971613236        0.00000000000002       -0.00000000000000
Pt           3.94314971613234       -0.00000000000000        3.94314971613235
Pt           3.94314971613236        3.94314971613238        0.00000000000002
Pt           3.94314971613233        3.94314971613236        3.94314971613235
Pt          -0.00000000000000        1.97157485806618        1.97157485806616
Pt           3.94314971613236        1.97157485806619        1.97157485806621
Pt           1.97157485806617        0.00000000000000        1.97157485806617
Pt           1.97157485806617        3.94314971613235        1.97157485806615
Pt           1.97157485806621        1.97157485806616       -0.00000000000002
Pt           1.97157485806618        1.97157485806617        3.94314971613237
H           -2.26183544584311        3.53171743792787        2.79887336013806
H           -2.66203393451944        0.47583670622151        2.41027934092880
H           -1.89775111896355        2.19015188349759        0.41992679199326
H           -1.26651969385257        2.19567078683665        2.49374909959859
H           -2.62166943235341        2.15825087741718       -0.03229334141630
H           -1.44773782909941        4.25061102205295        3.24743224843332
H           -2.64495923555348       -0.06760737053288        1.99215390805901
21
 energy: -67.827182353091 gnorm: 0.112038302268 xtb: 6.6.1 (unknown)
Pt           0.00000000000001        0.00000000000001       -0.00000000000002
Pt          -0.00000000000000        0.00000000000000        3.94314971613233
Pt          -0.00000000000001        3.94314971613236       -0.00000000000001
Pt           0.00000000000002        3.94314971613235        3.94314971613238
Pt           3.94314971613236        0.00000000000002       -0.00000000000000
Pt           3.94314971613233       -0.00000000000000        3.94314971613235
Pt           3.94314971613236        3.94314971613238        0.00000000000003
Pt           3.94314971613233        3.94314971613236        3.94314971613235
Pt          -0.00000000000001        1.97157485806618        1.97157485806616
Pt           3.94314971613236        1.97157485806619        1.97157485806621
Pt           1.97157485806617        0.00000000000000        1.97157485806617
Pt           1.97157485806617        3.94314971613234        1.97157485806615
Pt           1.97157485806622        1.97157485806616       -0.00000000000002
Pt           1.97157485806618        1.97157485806617        3.94314971613237
H           -2.16632628443774        3.55202068495876        2.86973465183490
H           -2.58798098609222        0.48688609463456        2.46358252735719
H           -1.91194719461146        2.16083885804435        0.39757212454722
H           -1.45931504472493        2.20720087321925        2.47858865766309
H           -2.64552046255681        2.11949037001431       -0.04969150091962
H           -1.45894934661917        4.23585304207087        3.24694600484601
H           -2.72805358880256       -0.16680664032530        1.97805546001684
21
 energy: -67.824816417876 gnorm: 0.130946007880 xtb: 6.6.1 (unknown)
Pt           0.00000000000001        0.00000000000001       -0.00000000000001
Pt          -0.00000000000000        0.00000000000000        3.94314971613233
Pt          -0.00000000000001        3.94314971613236       -0.00000000000001
Pt           0.00000000000001        3.94314971613235        3.94314971613237
Pt           3.94314971613236        0.00000000000002       -0.00000000000000
Pt           3.94314971613234       -0.00000000000000        3.94314971613235
Pt           3.94314971613236        3.94314971613238        0.00000000000003
Pt           3.94314971613233        3.94314971613236        3.94314971613235
Pt          -0.00000000000000        1.97157485806617        1.97157485806616
Pt           3.94314971613236        1.97157485806619        1.97157485806621
Pt           1.97157485806617        0.00000000000000        1.97157485806617
Pt           1.97157485806617        3.94314971613234        1.97157485806615
Pt           1.97157485806622        1.97157485806616       -0.00000000000002
Pt           1.97157485806618        1.97157485806617        3.94314971613237
H           -1.99809138682582        3.67854642840039        3.02234406786255
H           -2.63555300196704        0.42325303659973        2.40272038491731
H           -1.93851357621439        2.12231286677023        0.33219644542541
H           -1.53567945593335        2.19349132930160        2.36352224781795
H           -2.68757704141859        2.05523673176395       -0.09199780056084
H           -1.48718563883748        4.21112022403737        3.25917523927790
H           -2.73956095961909       -0.24765494452165        2.08079588958148
21
 energy: -67.836942131711 gnorm: 0.114846122004 xtb: 6.6.1 (unknown)
Pt           0.00000000000001        0.00000000000001       -0.00000000000002
Pt          -0.00000000000000        0.00000000000000        3.94314971613233
Pt          -0.00000000000001        3.94314971613236       -0.00000000000001
Pt           0.00000000000002        3.94314971613235        3.94314971613238
Pt           3.94314971613236        0.00000000000002       -0.00000000000001
Pt           3.94314971613233       -0.00000000000000        3.94314971613235
Pt           3.94314971613236        3.94314971613239        0.00000000000003
Pt           3.94314971613232        3.94314971613236        3.94314971613235
Pt          -0.00000000000001        1.97157485806617        1.97157485806615
Pt           3.94314971613237        1.97157485806619        1.97157485806622
Pt           1.97157485806617        0.00000000000000        1.97157485806617
Pt           1.97157485806617        3.94314971613234        1.97157485806614
Pt           1.97157485806622        1.97157485806615       -0.00000000000002
Pt           1.97157485806618        1.97157485806617        3.94314971613238
H           -2.07564184249797        3.67453219243709        3.03490883475438
H           -2.59260409469276        0.43706036968491        2.41110210424609
H           -1.96253604917889        2.11651791389749        0.29019537370155
H           -1.45310847633900        2.15278585288273        2.28952596512449
H           -2.71766520118324        2.06264635508998       -0.12421888130424
H           -1.50830243909716        4.33874753734816        3.30015471957931
H           -2.84143774602605       -0.31675263167248        2.08492059183404
21
 energy: -67.835086466253 gnorm: 0.128063752009 xtb: 6.6.1 (unknown)
Pt           0.00000000000001        0.00000000000001       -0.00000000000002
Pt          -0.00000000000000        0.00000000000000        3.94314971613233
Pt          -0.00000000000001        3.94314971613236       -0.00000000000001
Pt           0.00000000000001        3.94314971613235        3.94314971613238
Pt           3.94314971613236        0.00000000000002       -0.00000000000000
Pt           3.94314971613233       -0.00000000000000        3.94314971613235
Pt           3.94314971613236        3.94314971613238        0.00000000000003
Pt           3.94314971613232        3.94314971613236        3.94314971613235
Pt          -0.00000000000000        1.97157485806617        1.97157485806616
Pt           3.94314971613236        1.97157485806619        1.97157485806621
Pt           1.97157485806617        0.00000000000000        1.97157485806617
Pt           1.97157485806617        3.94314971613234        1.97157485806615
Pt           1.97157485806622        1.97157485806615       -0.00000000000002
Pt           1.97157485806618        1.97157485806617        3.94314971613237
H           -2.28137874881923        3.86099600605820        3.01802061164088
H           -2.71542937224044        0.40583853128924        2.39383015316343
H           -1.99598624475212        2.06566117945213        0.26216951784191
H           -1.53778376875976        2.02768717438397        2.31690277092371
H           -2.71988935483591        2.08736941386760       -0.15299408270152
H           -1.54564961787194        4.44388533790909        3.40078715372158
H           -2.77066518872635       -0.27998980309468        2.18406088519271
21
 energy: -67.846732880086 gnorm: 0.112107680538 xtb: 6.6.1 (unknown)
Pt           0.00000000000001        0.00000000000001       -0.00000000000002
Pt          -0.00000000000000        0.00000000000000        3.94314971613233
Pt          -0.00000000000001        3.94314971613236       -0.00000000000001
Pt           0.00000000000002        3.94314971613235        3.94314971613238
Pt           3.94314971613236        0.00000000000002       -0.00000000000001
Pt           3.94314971613233       -0.00000000000000        3.94314971613235
Pt           3.94314971613236        3.94314971613239        0.00000000000003
Pt           3.94314971613232        3.94314971613236        3.94314971613235
Pt          -0.00000000000000        1.97157485806617        1.97157485806616
Pt           3.94314971613236        1.97157485806619        1.97157485806622
Pt           1.97157485806617        0.00000000000000        1.97157485806617
Pt           1.97157485806617        3.94314971613234        1.97157485806614
Pt           1.97157485806622        1.97157485806615       -0.00000000000002
Pt           1.97157485806618        1.97157485806617        3.94314971613238
H           -2.25327246068890        3.94252057272740        3.15459500994020
H           -2.68516980197668        0.37004623442017        2.32014705229627
H           -2.04393638610622        2.04994728360414        0.18148164530792
H           -1.47185696319100        2.05898301076618        2.25088065041568
H           -2.76128433113154        2.05516679843341       -0.23972125766626
H           -1.58433184290191        4.48063000539444        3.41027904696146
H           -2.86520449067101       -0.42024135078167        2.23197125147821
21
 energy: -67.846693266282 gnorm: 0.140919277016 xtb: 6.6.1 (unknown)
Pt           0.00000000000001        0.00000000000001       -0.00000000000002
Pt          -0.00000000000000        0.00000000000000        3.94314971613233
Pt          -0.00000000000001        3.94314971613236       -0.00000000000001
Pt           0.00000000000002        3.94314971613235        3.94314971613238
Pt           3.94314971613236        0.00000000000002       -0.00000000000001
Pt           3.94314971613233       -0.00000000000000        3.94314971613235
Pt           3.94314971613236        3.94314971613239        0.00000000000003
Pt           3.94314971613232        3.94314971613236        3.94314971613235
Pt          -0.00000000000000        1.97157485806617        1.97157485806615
Pt           3.94314971613236        1.97157485806619        1.97157485806622
Pt           1.97157485806617        0.00000000000000        1.97157485806617
Pt           1.97157485806617        3.94314971613234        1.97157485806614
Pt           1.97157485806622        1.97157485806615       -0.00000000000002
Pt           1.97157485806618        1.97157485806617        3.94314971613237
H           -2.28144916618310        4.11524632289428        3.31896396174646
H           -2.73183138609084        0.17883420254650        2.35682782547207
H           -2.13544209213217        2.03357217711740        0.02835235791090
H           -1.39583728292496        2.14518825683130        2.14604389732701
H           -2.84911321731542        2.00285389308492       -0.39269920234965
H           -1.64655089898518        4.61356125213418        3.46345165417712
H           -2.92886561580788       -0.50508364197606        2.18467646176520
21
 energy: -67.853218649225 gnorm: 0.112138667155 xtb: 6.6.1 (unknown)
Pt           0.00000000000001        0.00000000000001       -0.00000000000002
Pt          -0.00000000000000        0.00000000000000        3.94314971613232
Pt          -0.00000000000001        3.94314971613237       -0.00000000000001
Pt           0.00000000000002        3.94314971613235        3.94314971613238
Pt           3.94314971613236        0.00000000000002       -0.00000000000001
Pt           3.94314971613233       -0.00000000000000        3.94314971613235
Pt           3.94314971613237        3.94314971613239        0.00000000000003
Pt           3.94314971613232        3.94314971613236        3.94314971613235
Pt          -0.00000000000000        1.97157485806617        1.97157485806615
Pt           3.94314971613237        1.97157485806619        1.97157485806622
Pt           1.97157485806617        0.00000000000000        1.97157485806617